# vtk DataFile Version 3.0
test_file
ASCII
DATASET POLYDATA
POINTS 1000 float
   0.07500 	   -0.00000 	    0.00000
   0.07500 	   -0.00000 	    1.00000
   0.07500 	    0.00000 	    2.00000
   0.07500 	    0.00000 	    3.00000
   0.07500 	    0.00000 	    4.00000
   0.07500 	    0.00000 	    5.00000
   0.07500 	    0.00000 	    6.00000
   0.07500 	    0.00000 	    7.00000
   0.07500 	   -0.00000 	    8.00000
   0.07500 	    0.00000 	    9.00000
   0.07500 	    1.00000 	    0.00000
   0.07500 	    1.00000 	    1.00000
   0.07500 	    1.00000 	    2.00000
   0.07500 	    1.00000 	    3.00000
   0.07500 	    1.00000 	    4.00000
   0.07500 	    1.00000 	    5.00000
   0.07500 	    1.00000 	    6.00000
   0.07500 	    1.00000 	    7.00000
   0.07500 	    1.00000 	    8.00000
   0.07500 	    1.00000 	    9.00000
   0.07500 	    2.00000 	    0.00000
   0.07500 	    2.00000 	    1.00000
   0.07500 	    2.00000 	    2.00000
   0.07500 	    2.00000 	    3.00000
   0.07500 	    2.00000 	    4.00000
   0.07500 	    2.00000 	    5.00000
   0.07500 	    2.00000 	    6.00000
   0.07500 	    2.00000 	    7.00000
   0.07500 	    2.00000 	    8.00000
   0.07500 	    2.00000 	    9.00000
   0.07500 	    3.00000 	    0.00000
   0.07500 	    3.00000 	    1.00000
   0.07500 	    3.00000 	    2.00000
   0.07500 	    3.00000 	    3.00000
   0.07500 	    3.00000 	    4.00000
   0.07500 	    3.00000 	    5.00000
   0.07500 	    3.00000 	    6.00000
   0.07500 	    3.00000 	    7.00000
   0.07500 	    3.00000 	    8.00000
   0.07500 	    3.00000 	    9.00000
   0.07500 	    4.00000 	    0.00000
   0.07500 	    4.00000 	    1.00000
   0.07500 	    4.00000 	    2.00000
   0.07500 	    4.00000 	    3.00000
   0.07500 	    4.00000 	    4.00000
   0.07500 	    4.00000 	    5.00000
   0.07500 	    4.00000 	    6.00000
   0.07500 	    4.00000 	    7.00000
   0.07500 	    4.00000 	    8.00000
   0.07500 	    4.00000 	    9.00000
   0.07500 	    5.00000 	    0.00000
   0.07500 	    5.00000 	    1.00000
   0.07500 	    5.00000 	    2.00000
   0.07500 	    5.00000 	    3.00000
   0.07500 	    5.00000 	    4.00000
   0.07500 	    5.00000 	    5.00000
   0.07500 	    5.00000 	    6.00000
   0.07500 	    5.00000 	    7.00000
   0.07500 	    5.00000 	    8.00000
   0.07500 	    5.00000 	    9.00000
   0.07500 	    6.00000 	    0.00000
   0.07500 	    6.00000 	    1.00000
   0.07500 	    6.00000 	    2.00000
   0.07500 	    6.00000 	    3.00000
   0.07500 	    6.00000 	    4.00000
   0.07500 	    6.00000 	    5.00000
   0.07500 	    6.00000 	    6.00000
   0.07500 	    6.00000 	    7.00000
   0.07500 	    6.00000 	    8.00000
   0.07500 	    6.00000 	    9.00000
   0.07500 	    7.00000 	    0.00000
   0.07500 	    7.00000 	    1.00000
   0.07500 	    7.00000 	    2.00000
   0.07500 	    7.00000 	    3.00000
   0.07500 	    7.00000 	    4.00000
   0.07500 	    7.00000 	    5.00000
   0.07500 	    7.00000 	    6.00000
   0.07500 	    7.00000 	    7.00000
   0.07500 	    7.00000 	    8.00000
   0.07500 	    7.00000 	    9.00000
   0.07500 	    8.00000 	    0.00000
   0.07500 	    8.00000 	    1.00000
   0.07500 	    8.00000 	    2.00000
   0.07500 	    8.00000 	    3.00000
   0.07500 	    8.00000 	    4.00000
   0.07500 	    8.00000 	    5.00000
   0.07500 	    8.00000 	    6.00000
   0.07500 	    8.00000 	    7.00000
   0.07500 	    8.00000 	    8.00000
   0.07500 	    8.00000 	    9.00000
   0.07500 	    9.00000 	    0.00000
   0.07500 	    9.00000 	    1.00000
   0.07500 	    9.00000 	    2.00000
   0.07500 	    9.00000 	    3.00000
   0.07500 	    9.00000 	    4.00000
   0.07500 	    9.00000 	    5.00000
   0.07500 	    9.00000 	    6.00000
   0.07500 	    9.00000 	    7.00000
   0.07500 	    9.00000 	    8.00000
   0.07500 	    9.00000 	    9.00000
   1.06689 	   -0.01391 	   -0.01391
   1.06740 	   -0.01532 	    0.99057
   1.06767 	   -0.01624 	    1.99494
   1.06789 	   -0.01708 	    2.99653
   1.06764 	   -0.01741 	    3.99866
   1.06764 	   -0.01741 	    5.00134
   1.06789 	   -0.01708 	    6.00347
   1.06767 	   -0.01624 	    7.00506
   1.06740 	   -0.01532 	    8.00943
   1.06689 	   -0.01391 	    9.01391
   1.06740 	    0.99057 	   -0.01532
   1.06750 	    0.98781 	    0.98781
   1.06765 	    0.98587 	    1.99475
   1.06856 	    0.98457 	    2.99598
   1.06854 	    0.98433 	    3.99815
   1.06854 	    0.98433 	    5.00185
   1.06856 	    0.98457 	    6.00402
   1.06765 	    0.98587 	    7.00525
   1.06750 	    0.98781 	    8.01219
   1.06740 	    0.99057 	    9.01532
   1.06767 	    1.99494 	   -0.01624
   1.06765 	    1.99475 	    0.98587
   1.06627 	    1.99426 	    1.99426
   1.06662 	    1.99376 	    2.99564
   1.06647 	    1.99336 	    3.99797
   1.06647 	    1.99336 	    5.00203
   1.06662 	    1.99376 	    6.00436
   1.06627 	    1.99426 	    7.00574
   1.06765 	    1.99475 	    8.01412
   1.06767 	    1.99494 	    9.01624
   1.06789 	    2.99653 	   -0.01708
   1.06856 	    2.99598 	    0.98457
   1.06662 	    2.99564 	    1.99376
   1.06634 	    2.99518 	    2.99518
   1.06597 	    2.99480 	    3.99779
   1.06597 	    2.99480 	    5.00221
   1.06634 	    2.99518 	    6.00482
   1.06662 	    2.99564 	    7.00624
   1.06856 	    2.99598 	    8.01542
   1.06789 	    2.99653 	    9.01708
   1.06764 	    3.99866 	   -0.01741
   1.06854 	    3.99814 	    0.98433
   1.06647 	    3.99797 	    1.99336
   1.06597 	    3.99779 	    2.99480
   1.06558 	    3.99764 	    3.99764
   1.06558 	    3.99764 	    5.00236
   1.06597 	    3.99779 	    6.00520
   1.06647 	    3.99797 	    7.00664
   1.06854 	    3.99815 	    8.01567
   1.06764 	    3.99866 	    9.01741
   1.06764 	    5.00134 	   -0.01741
   1.06854 	    5.00185 	    0.98433
   1.06647 	    5.00203 	    1.99336
   1.06597 	    5.00221 	    2.99480
   1.06558 	    5.00236 	    3.99764
   1.06558 	    5.00236 	    5.00236
   1.06597 	    5.00221 	    6.00520
   1.06647 	    5.00203 	    7.00664
   1.06854 	    5.00185 	    8.01567
   1.06764 	    5.00134 	    9.01741
   1.06789 	    6.00347 	   -0.01708
   1.06856 	    6.00402 	    0.98457
   1.06662 	    6.00436 	    1.99376
   1.06634 	    6.00482 	    2.99518
   1.06597 	    6.00520 	    3.99779
   1.06597 	    6.00520 	    5.00221
   1.06634 	    6.00482 	    6.00482
   1.06662 	    6.00436 	    7.00624
   1.06856 	    6.00402 	    8.01542
   1.06789 	    6.00347 	    9.01708
   1.06767 	    7.00506 	   -0.01624
   1.06765 	    7.00525 	    0.98587
   1.06627 	    7.00574 	    1.99426
   1.06662 	    7.00624 	    2.99564
   1.06647 	    7.00664 	    3.99797
   1.06647 	    7.00664 	    5.00203
   1.06662 	    7.00624 	    6.00436
   1.06627 	    7.00574 	    7.00574
   1.06765 	    7.00525 	    8.01412
   1.06767 	    7.00506 	    9.01624
   1.06740 	    8.00943 	   -0.01532
   1.06750 	    8.01219 	    0.98781
   1.06765 	    8.01412 	    1.99475
   1.06856 	    8.01542 	    2.99598
   1.06854 	    8.01567 	    3.99815
   1.06854 	    8.01567 	    5.00185
   1.06856 	    8.01542 	    6.00402
   1.06765 	    8.01412 	    7.00525
   1.06750 	    8.01219 	    8.01219
   1.06740 	    8.00943 	    9.01532
   1.06689 	    9.01391 	   -0.01391
   1.06740 	    9.01532 	    0.99057
   1.06767 	    9.01624 	    1.99494
   1.06789 	    9.01708 	    2.99653
   1.06764 	    9.01741 	    3.99866
   1.06764 	    9.01741 	    5.00134
   1.06789 	    9.01708 	    6.00347
   1.06767 	    9.01624 	    7.00506
   1.06740 	    9.01532 	    8.00943
   1.06689 	    9.01391 	    9.01391
   2.05616 	   -0.01743 	   -0.01743
   2.05882 	   -0.01873 	    0.98608
   2.05934 	   -0.02049 	    1.99064
   2.05923 	   -0.02195 	    2.99426
   2.05911 	   -0.02265 	    3.99809
   2.05911 	   -0.02265 	    5.00191
   2.05923 	   -0.02195 	    6.00574
   2.05934 	   -0.02049 	    7.00936
   2.05882 	   -0.01873 	    8.01392
   2.05616 	   -0.01743 	    9.01743
   2.05882 	    0.98608 	   -0.01873
   2.06822 	    0.98500 	    0.98500
   2.07049 	    0.98297 	    1.99143
   2.07021 	    0.98093 	    2.99454
   2.07009 	    0.97999 	    3.99812
   2.07009 	    0.97999 	    5.00188
   2.07021 	    0.98093 	    6.00546
   2.07049 	    0.98297 	    7.00857
   2.06822 	    0.98500 	    8.01500
   2.05882 	    0.98608 	    9.01873
   2.05934 	    1.99064 	   -0.02049
   2.07049 	    1.99143 	    0.98297
   2.07311 	    1.99118 	    1.99118
   2.07271 	    1.98991 	    2.99446
   2.07258 	    1.98911 	    3.99807
   2.07258 	    1.98911 	    5.00193
   2.07271 	    1.98991 	    6.00553
   2.07311 	    1.99118 	    7.00882
   2.07049 	    1.99143 	    8.01703
   2.05934 	    1.99064 	    9.02049
   2.05923 	    2.99426 	   -0.02195
   2.07021 	    2.99454 	    0.98093
   2.07271 	    2.99446 	    1.98991
   2.07201 	    2.99373 	    2.99373
   2.07177 	    2.99331 	    3.99783
   2.07177 	    2.99331 	    5.00217
   2.07201 	    2.99373 	    6.00627
   2.07271 	    2.99446 	    7.01009
   2.07021 	    2.99454 	    8.01907
   2.05923 	    2.99426 	    9.02195
   2.05911 	    3.99809 	   -0.02265
   2.07009 	    3.99812 	    0.97999
   2.07258 	    3.99807 	    1.98911
   2.07177 	    3.99783 	    2.99332
   2.07151 	    3.99769 	    3.99770
   2.07151 	    3.99769 	    5.00230
   2.07177 	    3.99783 	    6.00668
   2.07258 	    3.99807 	    7.01089
   2.07009 	    3.99812 	    8.02001
   2.05911 	    3.99809 	    9.02265
   2.05911 	    5.00191 	   -0.02265
   2.07009 	    5.00188 	    0.97999
   2.07258 	    5.00193 	    1.98911
   2.07177 	    5.00217 	    2.99332
   2.07151 	    5.00230 	    3.99770
   2.07151 	    5.00230 	    5.00230
   2.07177 	    5.00217 	    6.00668
   2.07258 	    5.00193 	    7.01089
   2.07009 	    5.00188 	    8.02001
   2.05911 	    5.00191 	    9.02265
   2.05923 	    6.00574 	   -0.02195
   2.07021 	    6.00546 	    0.98093
   2.07271 	    6.00553 	    1.98991
   2.07201 	    6.00627 	    2.99373
   2.07177 	    6.00668 	    3.99783
   2.07177 	    6.00668 	    5.00217
   2.07201 	    6.00627 	    6.00627
   2.07271 	    6.00553 	    7.01009
[...]
POINT_DATA 1000
SCALARS C float
LOOKUP_TABLE default
	      0.5796057
	      0.3478788
	      0.3056916
	      0.3086490
	      0.3122786
	      0.3122774
	      0.3086469
	      0.3056888
	      0.3478733
	      0.5795948
	      0.3478769
	      0.1483216
	      0.1115109
	      0.1104549
	      0.1115475
	      0.1115466
	      0.1104538
	      0.1115098
	      0.1483186
	      0.3478696
	      0.3056885
	      0.1115100
	      0.0787413
	      0.0821377
	      0.0852401
	      0.0852393
	      0.0821369
	      0.0787407
	      0.1115072
	      0.3056810
	      0.3086455
	      0.1104536
	      0.0821374
	      0.0917341
	      0.0977833
	      0.0977824
	      0.0917334
	      0.0821369
	      0.1104506
	      0.3086374
	      0.3122751
	      0.1115461
	      0.0852397
	      0.0977831
	      0.1051896
	      0.1051887
	      0.0977822
	      0.0852390
	      0.1115428
	      0.3122667
	      0.3122739
	      0.1115451
	      0.0852386
	      0.0977818
	      0.1051882
	      0.1051873
	      0.0977809
	      0.0852379
	      0.1115418
	      0.3122656
	      0.3086436
	      0.1104524
	      0.0821362
	      0.0917327
	      0.0977817
	      0.0977808
	      0.0917319
	      0.0821356
	      0.1104493
	      0.3086355
	      0.3056859
	      0.1115085
	      0.0787399
	      0.0821361
	      0.0852383
	      0.0852375
	      0.0821354
	      0.0787394
	      0.1115057
	      0.3056784
	      0.3478705
	      0.1483170
	      0.1115059
	      0.1104491
	      0.1115413
	      0.1115405
	      0.1104480
	      0.1115048
	      0.1483140
	      0.3478632
	      0.5795920
	      0.3478669
	      0.3056781
	      0.3086342
	      0.3122632
	      0.3122621
	      0.3086321
	      0.3056753
	      0.3478613
	      0.5795811
	      0.0583681
	      0.0426672
	      0.0409672
	      0.0445456
	      0.0451687
	      0.0451685
	      0.0445453
	      0.0409669
	      0.0426669
	      0.0583671
	      0.0426673
	      0.0379307
	      0.0344262
	      0.0368637
	      0.0370881
	      0.0370879
	      0.0368634
	      0.0344260
	      0.0379308
	      0.0426672
	      0.0409673
	      0.0344262
	      0.0282806
	      0.0293362
	      0.0285896
	      0.0285893
	      0.0293359
	      0.0282802
	      0.0344260
	      0.0409669
	      0.0445456
	      0.0368635
	      0.0293360
	      0.0284364
	      0.0272070
	      0.0272067
	      0.0284361
	      0.0293355
	      0.0368631
	      0.0445451
	      0.0451687
	      0.0370880
	      0.0285894
	      0.0272069
	      0.0261858
	      0.0261855
	      0.0272066
	      0.0285889
	      0.0370875
	      0.0451684
	      0.0451684
	      0.0370877
	      0.0285890
	      0.0272065
	      0.0261853
	      0.0261849
	      0.0272061
	      0.0285886
	      0.0370873
	      0.0451681
	      0.0445451
	      0.0368632
	      0.0293356
	      0.0284359
	      0.0272064
	      0.0272060
	      0.0284355
	      0.0293352
	      0.0368628
	      0.0445446
	      0.0409667
	      0.0344259
	      0.0282799
	      0.0293353
	      0.0285887
	      0.0285884
	      0.0293350
	      0.0282796
	      0.0344256
	      0.0409663
	      0.0426666
	      0.0379310
	      0.0344258
	      0.0368629
	      0.0370874
	      0.0370871
	      0.0368626
	      0.0344256
	      0.0379311
	      0.0426665
	      0.0583671
	      0.0426670
	      0.0409667
	      0.0445449
	      0.0451683
	      0.0451681
	      0.0445446
	      0.0409664
	      0.0426667
	      0.0583661
	      0.1140527
	      0.0879557
	      0.0812417
	      0.0797899
	      0.0788909
	      0.0788908
	      0.0797896
	      0.0812412
	      0.0879550
	      0.1140512
	      0.0879558
	      0.0754677
	      0.0743210
	      0.0716589
	      0.0693913
	      0.0693911
	      0.0716585
	      0.0743206
	      0.0754675
	      0.0879553
	      0.0812417
	      0.0743210
	      0.0792909
	      0.0790940
	      0.0769967
	      0.0769964
	      0.0790937
	      0.0792906
	      0.0743206
	      0.0812407
	      0.0797898
	      0.0716586
	      0.0790939
	      0.0785338
	      0.0757784
	      0.0757780
	      0.0785334
	      0.0790935
	      0.0716577
	      0.0797885
	      0.0788907
	      0.0693910
	      0.0769965
	      0.0757783
	      0.0726657
	      0.0726653
	      0.0757779
	      0.0769961
	      0.0693900
	      0.0788896
	      0.0788905
	      0.0693908
	      0.0769960
	      0.0757777
	      0.0726650
	      0.0726646
	      0.0757773
	      0.0769956
	      0.0693898
	      0.0788894
	      0.0797892
	      0.0716581
	      0.0790934
	      0.0785330
	      0.0757775
	      0.0757771
	      0.0785326
	      0.0790930
	      0.0716573
	      0.0797879
	      0.0812407
	      0.0743202
	      0.0792902
	      0.0790931
	      0.0769957
	      0.0769954
	      0.0790928
	      0.0792899
	      0.0743199
	      0.0812397
	      0.0879545
	      0.0754678
	      0.0743203
	      0.0716574
	      0.0693897
	      0.0693895
	      0.0716570
	      0.0743198
	      0.0754676
	      0.0879539
	      0.1140510
	      0.0879548
	      0.0812402
	      0.0797881
	      0.0788893
	      0.0788891
	      0.0797878
	      0.0812397
	      0.0879541
	      0.1140495
	      0.1109890
	      0.0885283
	      0.0830049
	      0.0810183
	      0.0805093
	      0.0805092
	      0.0810179
	      0.0830043
	      0.0885276
	      0.1109879
	      0.0885285
	      0.0674270
	      0.0682808
	      0.0652363
	      0.0640213
	      0.0640212
	      0.0652359
	      0.0682804
	      0.0674269
	      0.0885278
	      0.0830051
	      0.0682810
	      0.0791936
	      0.0802578
	      0.0791937
	      0.0791936
	      0.0802576
	      0.0791934
	      0.0682810
	      0.0830035
	      0.0810182
	      0.0652361
	      0.0802577
	      0.0815270
	      0.0799555
	      0.0799553
	      0.0815267
	      0.0802573
	      0.0652354
	      0.0810162
	      0.0805090
	      0.0640210
	      0.0791935
	      0.0799554
	      0.0781209
	      0.0781207
	      0.0799550
	      0.0791930
	      0.0640202
	      0.0805072
	      0.0805088
	      0.0640210
	      0.0791932
	      0.0799550
	      0.0781205
	      0.0781203
	      0.0799546
	      0.0791927
	      0.0640201
	      0.0805070
	      0.0810175
	      0.0652357
	      0.0802572
	      0.0815263
	      0.0799547
	      0.0799545
	      0.0815260
	      0.0802568
	      0.0652350
	      0.0810155
	      0.0830037
	      0.0682801
	      0.0791930
	      0.0802569
	      0.0791927
	      0.0791925
	      0.0802567
	      0.0791927
	      0.0682801
	      0.0830022
	      0.0885270
	      0.0674270
	      0.0682807
	      0.0652351
	      0.0640199
	      0.0640198
	      0.0652348
	      0.0682802
	      0.0674269
	      0.0885263
	      0.1109877
	      0.0885272
	      0.0830029
	      0.0810158
	      0.0805068
	      0.0805067
	      0.0810154
	      0.0830023
	      0.0885265
	      0.1109866
	      0.1008748
	      0.0821559
	      0.0790763
	      0.0795453
	      0.0802848
	      0.0802847
	      0.0795450
	      0.0790758
	      0.0821554
	      0.1008742
	      0.0821561
	      0.0581631
	      0.0538585
	      0.0532990
	      0.0541021
	      0.0541020
	      0.0532986
	      0.0538580
	      0.0581630
	      0.0821565
	      0.0790766
	      0.0538585
	      0.0531040
	      0.0557292
	      0.0568319
	      0.0568318
	      0.0557289
	      0.0531037
	      0.0538584
	      0.0790763
	      0.0795455
	      0.0532988
	      0.0557290
	      0.0589936
	      0.0599818
	      0.0599816
	      0.0589932
	      0.0557285
	      0.0532981
	      0.0795449
	      0.0802848
	      0.0541019
	      0.0568317
	      0.0599816
	      0.0609238
	      0.0609236
	      0.0599812
	      0.0568311
	      0.0541010
	      0.0802843
	      0.0802846
	      0.0541018
	      0.0568314
	      0.0599813
	      0.0609234
	      0.0609232
	      0.0599809
	      0.0568309
	      0.0541009
	      0.0802841
	      0.0795448
	      0.0532984
	      0.0557285
	      0.0589928
	      0.0599809
	      0.0599807
	      0.0589924
	      0.0557280
	      0.0532976
	      0.0795442
	      0.0790755
	      0.0538578
	      0.0531034
	      0.0557282
	      0.0568308
	      0.0568306
	      0.0557279
	      0.0531030
	      0.0538576
	      0.0790753
	      0.0821552
	      0.0581632
	      0.0538582
	      0.0532978
	      0.0541008
	      0.0541007
	      0.0532975
	      0.0538577
	      0.0581631
	      0.0821556
	      0.1008747
	      0.0821563
	      0.0790761
	      0.0795448
	      0.0802843
	      0.0802842
	      0.0795444
	      0.0790755
	      0.0821558
	      0.1008740
	      0.1013904
	      0.0831933
	      0.0816357
	      0.0824685
	      0.0826161
	      0.0826160
	      0.0824681
	      0.0816351
	      0.0831927
	      0.1013893
	      0.0831935
	      0.0682406
	      0.0684847
	      0.0694106
	      0.0694371
	      0.0694369
	      0.0694101
	      0.0684842
	      0.0682407
	      0.0831933
	      0.0816358
	      0.0684847
	      0.0697230
	      0.0738534
	      0.0744756
	      0.0744754
	      0.0738529
	      0.0697226
	      0.0684847
	      0.0816351
	      0.0824685
	      0.0694105
	      0.0738532
	      0.0788971
	      0.0795020
	      0.0795017
	      0.0788965
	      0.0738527
	      0.0694101
	      0.0824674
	      0.0826160
	      0.0694370
	      0.0744754
	      0.0795018
	      0.0800754
	      0.0800751
	      0.0795012
	      0.0744747
	      0.0694364
	      0.0826149
	      0.0826158
	      0.0694368
	      0.0744750
	      0.0795013
	      0.0800749
	      0.0800746
	      0.0795007
	      0.0744744
	      0.0694362
	      0.0826146
	      0.0824678
	      0.0694099
	      0.0738525
	      0.0788961
	      0.0795008
	      0.0795005
	      0.0788955
	      0.0738519
	      0.0694094
	      0.0824666
	      0.0816347
	      0.0684839
	      0.0697222
	      0.0738523
	      0.0744744
	      0.0744742
	      0.0738518
	      0.0697218
	      0.0684840
	      0.0816340
	      0.0831924
	      0.0682409
	      0.0684845
	      0.0694098
	      0.0694362
	      0.0694360
	      0.0694093
	      0.0684840
	      0.0682410
	      0.0831922
	      0.1013894
	      0.0831930
	      0.0816347
	      0.0824671
	      0.0826147
	      0.0826145
	      0.0824667
	      0.0816342
	      0.0831924
	      0.1013884
	      0.1156849
	      0.0925175
	      0.0888922
	      0.0877730
	      0.0863013
	      0.0863011
	      0.0877725
	      0.0888915
	      0.0925166
	      0.1156830
	      0.0925176
	      0.0787461
	      0.0809379
	      0.0810309
	      0.0791163
	      0.0791160
	      0.0810304
	      0.0809373
	      0.0787460
	      0.0925164
	      0.0888922
	      0.0809379
	      0.0865398
	      0.0900462
	      0.0887954
	      0.0887951
	      0.0900457
	      0.0865394
	      0.0809379
	      0.0888903
	      0.0877727
	      0.0810308
	      0.0900461
	      0.0943857
	      0.0929730
	      0.0929727
	      0.0943850
	      0.0900456
	      0.0810305
	      0.0877703
	      0.0863008
	      0.0791160
	      0.0887952
	      0.0929728
	      0.0913911
	      0.0913908
	      0.0929722
	      0.0887946
	      0.0791156
	      0.0862983
	      0.0863005
	      0.0791157
	      0.0887947
	      0.0929723
	      0.0913905
	      0.0913902
	      0.0929716
	      0.0887941
	      0.0791153
	      0.0862980
	      0.0877718
	      0.0810300
	      0.0900452
	      0.0943845
	      0.0929718
	      0.0929714
	      0.0943839
	      0.0900447
	      0.0810297
	      0.0877694
	      0.0888907
	      0.0809370
	      0.0865390
	      0.0900451
	      0.0887942
	      0.0887939
	      0.0900446
	      0.0865385
	      0.0809370
	      0.0888888
	      0.0925159
	      0.0787461
	      0.0809376
	      0.0810301
	      0.0791153
	      0.0791151
	      0.0810295
	      0.0809371
	      0.0787460
	      0.0925146
	      0.1156826
	      0.0925157
	      0.0888895
	      0.0877697
	      0.0862978
	      0.0862976
	      0.0877691
	      0.0888888
	      0.0925147
	      0.1156807
	      0.1185881
	      0.0892528
	      0.0832400
	      0.0825316
	      0.0811151
	      0.0811148
	      0.0825310
	      0.0832393
	      0.0892519
	      0.1185861
	      0.0892528
	      0.0674810
	      0.0656292
	      0.0663003
	      0.0647711
	      0.0647708
	      0.0662998
	      0.0656288
	      0.0674807
	      0.0892516
	      0.0832398
	      0.0656292
	      0.0648560
	      0.0671302
	      0.0662773
	      0.0662770
	      0.0671297
	      0.0648556
	      0.0656291
	      0.0832381
	      0.0825312
	      0.0663000
	      0.0671301
	      0.0699779
	      0.0690490
	      0.0690487
	      0.0699773
	      0.0671297
	      0.0662997
	      0.0825291
	      0.0811145
	      0.0647708
	      0.0662772
	      0.0690489
	      0.0679898
	      0.0679894
	      0.0690483
	      0.0662767
	      0.0647704
	      0.0811124
	      0.0811142
	      0.0647705
	      0.0662767
	      0.0690483
	      0.0679892
	      0.0679888
	      0.0690478
	      0.0662763
	      0.0647700
	      0.0811120
	      0.0825304
	      0.0662994
	      0.0671294
	      0.0699770
	      0.0690480
	      0.0690477
	      0.0699764
	      0.0671290
	      0.0662990
	      0.0825283
	      0.0832386
	      0.0656285
	      0.0648553
	      0.0671293
	      0.0662764
	      0.0662761
	      0.0671289
	      0.0648550
	      0.0656284
	      0.0832369
	      0.0892512
	      0.0674808
	      0.0656287
	      0.0662993
	      0.0647700
	      0.0647698
	      0.0662988
	      0.0656283
	      0.0674806
	      0.0892500
	      0.1185857
	      0.0892510
	      0.0832375
	      0.0825285
	      0.0811117
	      0.0811115
	      0.0825279
	      0.0832368
	      0.0892500
	      0.1185836
	      0.0794306
	      0.0529124
	      0.0498409
	      0.0529163
	      0.0530891
	      0.0530888
	      0.0529157
	      0.0498404
	      0.0529118
	      0.0794286
	      0.0529124
	      0.0265741
	      0.0280896
	      0.0347790
	      0.0349110
	      0.0349108
	      0.0347786
	      0.0280893
	      0.0265742
	      0.0529111
	      0.0498407
	      0.0280896
	      0.0294632
	      0.0357946
	      0.0359605
	      0.0359602
	      0.0357942
	      0.0294629
	      0.0280895
	      0.0498390
	      0.0529159
	      0.0347789
	      0.0357945
	      0.0411037
	      0.0412092
	      0.0412090
	      0.0411033
	      0.0357941
	      0.0347787
	      0.0529139
	      0.0530886
	      0.0349109
	      0.0359603
	      0.0412091
	      0.0414997
	      0.0414994
	      0.0412087
	      0.0359599
	      0.0349107
	      0.0530865
	      0.0530883
	      0.0349106
	      0.0359600
	      0.0412088
	      0.0414993
	      0.0414990
	      0.0412083
	      0.0359596
	      0.0349104
	      0.0530862
	      0.0529151
	      0.0347784
	      0.0357939
	      0.0411030
	      0.0412085
	      0.0412082
	      0.0411025
	      0.0357935
	      0.0347781
	      0.0529131
	      0.0498398
	      0.0280891
	      0.0294626
	      0.0357938
	      0.0359597
	      0.0359594
	      0.0357934
	      0.0294623
	      0.0280891
	      0.0498381
	      0.0529112
	      0.0265743
	      0.0280893
	      0.0347784
	      0.0349104
	      0.0349102
	      0.0347780
	      0.0280891
	      0.0265744
	      0.0529099
	      0.0794281
	      0.0529105
	      0.0498384
	      0.0529133
	      0.0530859
	      0.0530857
	      0.0529127
	      0.0498379
	      0.0529099
	      0.0794260
	      0.5594176
	      0.3555991
	      0.3112010
	      0.3065217
	      0.3075449
	      0.3075440
	      0.3065197
	      0.3111979
	      0.3555936
	      0.5594067
	      0.3555977
	      0.1932284
	      0.1585592
	      0.1538007
	      0.1544792
	      0.1544786
	      0.1537996
	      0.1585577
	      0.1932252
	      0.3555902
	      0.3111986
	      0.1585585
	      0.1265571
	      0.1243568
	      0.1266865
	      0.1266860
	      0.1243559
	      0.1265559
	      0.1585557
	      0.3111913
	      0.3065188
	      0.1537997
	      0.1243565
	      0.1258667
	      0.1302836
	      0.1302830
	      0.1258658
	      0.1243553
	      0.1537968
	      0.3065111
	      0.3075417
	      0.1544779
	      0.1266860
	      0.1302833
	      0.1357619
	      0.1357613
	      0.1302824
	      0.1266848
	      0.1544749
	      0.3075337
	      0.3075407
	      0.1544771
	      0.1266852
	      0.1302825
	      0.1357610
	      0.1357604
	      0.1302815
	      0.1266840
	      0.1544741
	      0.3075326
	      0.3065164
	      0.1537981
	      0.1243550
	      0.1258651
	      0.1302818
	      0.1302813
	      0.1258642
	      0.1243538
	      0.1537952
	      0.3065087
	      0.3111948
	      0.1585561
	      0.1265549
	      0.1243545
	      0.1266840
	      0.1266835
	      0.1243535
	      0.1265537
	      0.1585533
	      0.3111875
	      0.3555905
	      0.1932234
	      0.1585542
	      0.1537953
	      0.1544734
	      0.1544728
	      0.1537941
	      0.1585526
	      0.1932202
	      0.3555830
	      0.5594028
	      0.3555871
	      0.3111883
	      0.3065079
	      0.3075303
	      0.3075295
	      0.3065058
	      0.3111852
	      0.3555816
	      0.5593918
