# vtk DataFile Version 3.0
test_file
ASCII
DATASET POLYDATA
POINTS 1000 float
   0.60000 	   -0.00000 	    0.00000
   0.60000 	   -0.00000 	    1.00000
   0.60000 	    0.00000 	    2.00000
   0.60000 	    0.00000 	    3.00000
   0.60000 	    0.00000 	    4.00000
   0.60000 	    0.00000 	    5.00000
   0.60000 	    0.00000 	    6.00000
   0.60000 	    0.00000 	    7.00000
   0.60000 	   -0.00000 	    8.00000
   0.60000 	    0.00000 	    9.00000
   0.60000 	    1.00000 	    0.00000
   0.60000 	    1.00000 	    1.00000
   0.60000 	    1.00000 	    2.00000
   0.60000 	    1.00000 	    3.00000
   0.60000 	    1.00000 	    4.00000
   0.60000 	    1.00000 	    5.00000
   0.60000 	    1.00000 	    6.00000
   0.60000 	    1.00000 	    7.00000
   0.60000 	    1.00000 	    8.00000
   0.60000 	    1.00000 	    9.00000
   0.60000 	    2.00000 	    0.00000
   0.60000 	    2.00000 	    1.00000
   0.60000 	    2.00000 	    2.00000
   0.60000 	    2.00000 	    3.00000
   0.60000 	    2.00000 	    4.00000
   0.60000 	    2.00000 	    5.00000
   0.60000 	    2.00000 	    6.00000
   0.60000 	    2.00000 	    7.00000
   0.60000 	    2.00000 	    8.00000
   0.60000 	    2.00000 	    9.00000
   0.60000 	    3.00000 	    0.00000
   0.60000 	    3.00000 	    1.00000
   0.60000 	    3.00000 	    2.00000
   0.60000 	    3.00000 	    3.00000
   0.60000 	    3.00000 	    4.00000
   0.60000 	    3.00000 	    5.00000
   0.60000 	    3.00000 	    6.00000
   0.60000 	    3.00000 	    7.00000
   0.60000 	    3.00000 	    8.00000
   0.60000 	    3.00000 	    9.00000
   0.60000 	    4.00000 	    0.00000
   0.60000 	    4.00000 	    1.00000
   0.60000 	    4.00000 	    2.00000
   0.60000 	    4.00000 	    3.00000
   0.60000 	    4.00000 	    4.00000
   0.60000 	    4.00000 	    5.00000
   0.60000 	    4.00000 	    6.00000
   0.60000 	    4.00000 	    7.00000
   0.60000 	    4.00000 	    8.00000
   0.60000 	    4.00000 	    9.00000
   0.60000 	    5.00000 	    0.00000
   0.60000 	    5.00000 	    1.00000
   0.60000 	    5.00000 	    2.00000
   0.60000 	    5.00000 	    3.00000
   0.60000 	    5.00000 	    4.00000
   0.60000 	    5.00000 	    5.00000
   0.60000 	    5.00000 	    6.00000
   0.60000 	    5.00000 	    7.00000
   0.60000 	    5.00000 	    8.00000
   0.60000 	    5.00000 	    9.00000
   0.60000 	    6.00000 	    0.00000
   0.60000 	    6.00000 	    1.00000
   0.60000 	    6.00000 	    2.00000
   0.60000 	    6.00000 	    3.00000
   0.60000 	    6.00000 	    4.00000
   0.60000 	    6.00000 	    5.00000
   0.60000 	    6.00000 	    6.00000
   0.60000 	    6.00000 	    7.00000
   0.60000 	    6.00000 	    8.00000
   0.60000 	    6.00000 	    9.00000
   0.60000 	    7.00000 	    0.00000
   0.60000 	    7.00000 	    1.00000
   0.60000 	    7.00000 	    2.00000
   0.60000 	    7.00000 	    3.00000
   0.60000 	    7.00000 	    4.00000
   0.60000 	    7.00000 	    5.00000
   0.60000 	    7.00000 	    6.00000
   0.60000 	    7.00000 	    7.00000
   0.60000 	    7.00000 	    8.00000
   0.60000 	    7.00000 	    9.00000
   0.60000 	    8.00000 	    0.00000
   0.60000 	    8.00000 	    1.00000
   0.60000 	    8.00000 	    2.00000
   0.60000 	    8.00000 	    3.00000
   0.60000 	    8.00000 	    4.00000
   0.60000 	    8.00000 	    5.00000
   0.60000 	    8.00000 	    6.00000
   0.60000 	    8.00000 	    7.00000
   0.60000 	    8.00000 	    8.00000
   0.60000 	    8.00000 	    9.00000
   0.60000 	    9.00000 	    0.00000
   0.60000 	    9.00000 	    1.00000
   0.60000 	    9.00000 	    2.00000
   0.60000 	    9.00000 	    3.00000
   0.60000 	    9.00000 	    4.00000
   0.60000 	    9.00000 	    5.00000
   0.60000 	    9.00000 	    6.00000
   0.60000 	    9.00000 	    7.00000
   0.60000 	    9.00000 	    8.00000
   0.60000 	    9.00000 	    9.00000
   1.60819 	   -0.10787 	   -0.10787
   1.59949 	   -0.11660 	    0.94093
   1.59692 	   -0.11706 	    1.96867
   1.60119 	   -0.12065 	    2.97478
   1.59839 	   -0.12033 	    3.99042
   1.59839 	   -0.12033 	    5.00958
   1.60119 	   -0.12065 	    6.02522
   1.59692 	   -0.11706 	    7.03133
   1.59949 	   -0.11659 	    8.05906
   1.60819 	   -0.10787 	    9.10787
   1.59949 	    0.94093 	   -0.11660
   1.58566 	    0.91969 	    0.91969
   1.57543 	    0.92731 	    1.96052
   1.57824 	    0.92385 	    2.96058
   1.57677 	    0.92748 	    3.98451
   1.57677 	    0.92748 	    5.01549
   1.57824 	    0.92386 	    6.03942
   1.57543 	    0.92731 	    7.03947
   1.58566 	    0.91969 	    8.08030
   1.59949 	    0.94094 	    9.11659
   1.59692 	    1.96867 	   -0.11706
   1.57543 	    1.96052 	    0.92731
   1.57743 	    1.96281 	    1.96281
   1.57707 	    1.96325 	    2.95296
   1.57884 	    1.96418 	    3.98146
   1.57884 	    1.96418 	    5.01854
   1.57707 	    1.96325 	    6.04703
   1.57743 	    1.96281 	    7.03718
   1.57543 	    1.96052 	    8.07269
   1.59692 	    1.96867 	    9.11706
   1.60119 	    2.97478 	   -0.12065
   1.57824 	    2.96058 	    0.92386
   1.57707 	    2.95296 	    1.96325
   1.57492 	    2.95203 	    2.95203
   1.57660 	    2.95140 	    3.98134
   1.57660 	    2.95140 	    5.01866
   1.57492 	    2.95203 	    6.04796
   1.57707 	    2.95296 	    7.03674
   1.57824 	    2.96058 	    8.07614
   1.60119 	    2.97478 	    9.12064
   1.59839 	    3.99042 	   -0.12033
   1.57677 	    3.98450 	    0.92748
   1.57884 	    3.98145 	    1.96419
   1.57660 	    3.98133 	    2.95140
   1.57827 	    3.98121 	    3.98121
   1.57827 	    3.98121 	    5.01878
   1.57660 	    3.98133 	    6.04859
   1.57884 	    3.98145 	    7.03581
   1.57677 	    3.98450 	    8.07252
   1.59839 	    3.99042 	    9.12032
   1.59839 	    5.00958 	   -0.12033
   1.57677 	    5.01548 	    0.92748
   1.57884 	    5.01853 	    1.96419
   1.57660 	    5.01865 	    2.95140
   1.57827 	    5.01878 	    3.98121
   1.57827 	    5.01878 	    5.01878
   1.57660 	    5.01865 	    6.04859
   1.57884 	    5.01853 	    7.03581
   1.57677 	    5.01548 	    8.07252
   1.59839 	    5.00958 	    9.12032
   1.60119 	    6.02522 	   -0.12065
   1.57824 	    6.03941 	    0.92386
   1.57707 	    6.04703 	    1.96325
   1.57492 	    6.04796 	    2.95204
   1.57660 	    6.04859 	    3.98134
   1.57660 	    6.04859 	    5.01866
   1.57492 	    6.04796 	    6.04796
   1.57707 	    6.04703 	    7.03674
   1.57824 	    6.03941 	    8.07614
   1.60119 	    6.02522 	    9.12064
   1.59692 	    7.03133 	   -0.11706
   1.57543 	    7.03947 	    0.92731
   1.57743 	    7.03718 	    1.96281
   1.57707 	    7.03674 	    2.95296
   1.57884 	    7.03581 	    3.98146
   1.57884 	    7.03581 	    5.01854
   1.57707 	    7.03674 	    6.04703
   1.57743 	    7.03718 	    7.03718
   1.57543 	    7.03947 	    8.07268
   1.59692 	    7.03133 	    9.11706
   1.59949 	    8.05906 	   -0.11659
   1.58566 	    8.08030 	    0.91970
   1.57543 	    8.07268 	    1.96052
   1.57824 	    8.07614 	    2.96058
   1.57677 	    8.07251 	    3.98451
   1.57677 	    8.07251 	    5.01549
   1.57824 	    8.07614 	    6.03942
   1.57543 	    8.07268 	    7.03947
   1.58566 	    8.08030 	    8.08030
   1.59949 	    8.05906 	    9.11659
   1.60819 	    9.10787 	   -0.10787
   1.59949 	    9.11659 	    0.94094
   1.59692 	    9.11706 	    1.96867
   1.60119 	    9.12064 	    2.97478
   1.59839 	    9.12032 	    3.99042
   1.59839 	    9.12032 	    5.00958
   1.60119 	    9.12064 	    6.02522
   1.59692 	    9.11706 	    7.03133
   1.59949 	    9.11659 	    8.05906
   1.60819 	    9.10786 	    9.10786
   2.46663 	   -0.15754 	   -0.15754
   2.49078 	   -0.16560 	    0.88281
   2.49816 	   -0.17182 	    1.92277
   2.49784 	   -0.17796 	    2.95246
   2.49531 	   -0.18143 	    3.98442
   2.49531 	   -0.18143 	    5.01557
   2.49784 	   -0.17796 	    6.04754
   2.49816 	   -0.17182 	    7.07723
   2.49078 	   -0.16559 	    8.11719
   2.46663 	   -0.15753 	    9.15753
   2.49078 	    0.88281 	   -0.16559
   2.54765 	    0.86925 	    0.86925
   2.56496 	    0.86049 	    1.92931
   2.56472 	    0.85496 	    2.95770
   2.56064 	    0.84966 	    3.98670
   2.56064 	    0.84966 	    5.01329
   2.56472 	    0.85496 	    6.04229
   2.56496 	    0.86049 	    7.07069
   2.54765 	    0.86925 	    8.13075
   2.49078 	    0.88281 	    9.16559
   2.49816 	    1.92277 	   -0.17182
   2.56496 	    1.92931 	    0.86049
   2.57208 	    1.92936 	    1.92936
   2.56693 	    1.92643 	    2.95758
   2.55890 	    1.92078 	    3.98622
   2.55890 	    1.92078 	    5.01377
   2.56693 	    1.92643 	    6.04241
   2.57208 	    1.92936 	    7.07063
   2.56496 	    1.92931 	    8.13950
   2.49816 	    1.92277 	    9.17181
   2.49784 	    2.95246 	   -0.17796
   2.56472 	    2.95770 	    0.85496
   2.56693 	    2.95758 	    1.92643
   2.55967 	    2.95692 	    2.95693
   2.55113 	    2.95367 	    3.98587
   2.55113 	    2.95367 	    5.01412
   2.55967 	    2.95692 	    6.04307
   2.56693 	    2.95758 	    7.07356
   2.56472 	    2.95770 	    8.14503
   2.49784 	    2.95246 	    9.17795
   2.49531 	    3.98442 	   -0.18143
   2.56064 	    3.98670 	    0.84967
   2.55890 	    3.98622 	    1.92079
   2.55113 	    3.98587 	    2.95368
   2.54112 	    3.98480 	    3.98480
   2.54112 	    3.98480 	    5.01519
   2.55113 	    3.98587 	    6.04632
   2.55890 	    3.98622 	    7.07921
   2.56065 	    3.98670 	    8.15033
   2.49532 	    3.98442 	    9.18142
   2.49531 	    5.01557 	   -0.18143
   2.56064 	    5.01329 	    0.84967
   2.55890 	    5.01377 	    1.92078
   2.55113 	    5.01412 	    2.95367
   2.54112 	    5.01519 	    3.98480
   2.54112 	    5.01519 	    5.01519
   2.55113 	    5.01412 	    6.04632
   2.55890 	    5.01377 	    7.07921
   2.56064 	    5.01329 	    8.15033
   2.49532 	    5.01557 	    9.18142
   2.49784 	    6.04754 	   -0.17796
   2.56472 	    6.04229 	    0.85496
   2.56693 	    6.04241 	    1.92643
   2.55967 	    6.04307 	    2.95692
   2.55113 	    6.04632 	    3.98587
   2.55113 	    6.04632 	    5.01412
   2.55967 	    6.04307 	    6.04307
   2.56692 	    6.04241 	    7.07356
[...]
POINT_DATA 1000
SCALARS C float
LOOKUP_TABLE default
	      1.0605215
	      0.6049890
	      0.6039274
	      0.6287391
	      0.5983295
	      0.5983266
	      0.6287346
	      0.6039255
	      0.6049814
	      1.0604959
	      0.6049836
	      0.1162527
	      0.1169959
	      0.1486883
	      0.1247305
	      0.1247286
	      0.1486866
	      0.1169993
	      0.1162522
	      0.6049674
	      0.6039201
	      0.1169952
	      0.1204208
	      0.1663880
	      0.1399640
	      0.1399615
	      0.1663855
	      0.1204244
	      0.1169961
	      0.6039011
	      0.6287321
	      0.1486887
	      0.1663894
	      0.2258338
	      0.1978956
	      0.1978929
	      0.2258308
	      0.1663928
	      0.1486893
	      0.6287116
	      0.5983220
	      0.1247308
	      0.1399653
	      0.1978955
	      0.1660759
	      0.1660730
	      0.1978924
	      0.1399688
	      0.1247319
	      0.5983019
	      0.5983184
	      0.1247281
	      0.1399617
	      0.1978913
	      0.1660715
	      0.1660687
	      0.1978882
	      0.1399652
	      0.1247292
	      0.5982983
	      0.6287269
	      0.1486861
	      0.1663858
	      0.2258292
	      0.1978908
	      0.1978880
	      0.2258262
	      0.1663892
	      0.1486867
	      0.6287064
	      0.6039187
	      0.1169998
	      0.1204261
	      0.1663931
	      0.1399690
	      0.1399666
	      0.1663906
	      0.1204298
	      0.1170007
	      0.6038996
	      0.6049742
	      0.1162518
	      0.1169966
	      0.1486889
	      0.1247314
	      0.1247295
	      0.1486871
	      0.1170000
	      0.1162513
	      0.6049581
	      1.0604865
	      0.6049602
	      0.6038942
	      0.6287039
	      0.5982937
	      0.5982908
	      0.6286995
	      0.6038924
	      0.6049526
	      1.0604609
	      0.0829871
	      0.0640292
	      0.0639191
	      0.0699045
	      0.0706629
	      0.0706629
	      0.0699045
	      0.0639190
	      0.0640290
	      0.0829866
	      0.0640294
	      0.0684166
	      0.0688534
	      0.0813980
	      0.0807735
	      0.0807733
	      0.0813982
	      0.0688528
	      0.0684164
	      0.0640289
	      0.0639190
	      0.0688531
	      0.0561234
	      0.0672905
	      0.0647362
	      0.0647360
	      0.0672909
	      0.0561226
	      0.0688529
	      0.0639181
	      0.0699042
	      0.0813976
	      0.0672902
	      0.0788595
	      0.0764087
	      0.0764083
	      0.0788598
	      0.0672894
	      0.0813974
	      0.0699029
	      0.0706627
	      0.0807732
	      0.0647361
	      0.0764087
	      0.0740109
	      0.0740106
	      0.0764091
	      0.0647353
	      0.0807729
	      0.0706614
	      0.0706627
	      0.0807730
	      0.0647358
	      0.0764083
	      0.0740104
	      0.0740102
	      0.0764087
	      0.0647351
	      0.0807727
	      0.0706614
	      0.0699042
	      0.0813978
	      0.0672908
	      0.0788599
	      0.0764091
	      0.0764087
	      0.0788602
	      0.0672900
	      0.0813976
	      0.0699029
	      0.0639187
	      0.0688523
	      0.0561222
	      0.0672893
	      0.0647352
	      0.0647349
	      0.0672897
	      0.0561214
	      0.0688521
	      0.0639178
	      0.0640289
	      0.0684165
	      0.0688525
	      0.0813971
	      0.0807727
	      0.0807725
	      0.0813972
	      0.0688519
	      0.0684163
	      0.0640284
	      0.0829867
	      0.0640287
	      0.0639178
	      0.0699026
	      0.0706612
	      0.0706612
	      0.0699026
	      0.0639177
	      0.0640285
	      0.0829862
	      0.1901138
	      0.1396513
	      0.1269642
	      0.1259054
	      0.1252398
	      0.1252396
	      0.1259050
	      0.1269634
	      0.1396499
	      0.1901115
	      0.1396513
	      0.1110759
	      0.1043826
	      0.1037906
	      0.1029228
	      0.1029227
	      0.1037901
	      0.1043819
	      0.1110748
	      0.1396507
	      0.1269642
	      0.1043824
	      0.1052944
	      0.1004727
	      0.1061162
	      0.1061157
	      0.1004732
	      0.1052933
	      0.1043810
	      0.1269633
	      0.1259053
	      0.1037901
	      0.1004720
	      0.0941226
	      0.1010579
	      0.1010580
	      0.0941233
	      0.1004702
	      0.1037884
	      0.1259042
	      0.1252395
	      0.1029223
	      0.1061158
	      0.1010583
	      0.1080001
	      0.1079995
	      0.1010586
	      0.1061148
	      0.1029203
	      0.1252384
	      0.1252393
	      0.1029221
	      0.1061151
	      0.1010579
	      0.1079993
	      0.1079986
	      0.1010582
	      0.1061141
	      0.1029202
	      0.1252382
	      0.1259045
	      0.1037893
	      0.1004728
	      0.0941233
	      0.1010585
	      0.1010586
	      0.0941240
	      0.1004710
	      0.1037876
	      0.1259035
	      0.1269629
	      0.1043811
	      0.1052924
	      0.1004698
	      0.1061142
	      0.1061137
	      0.1004703
	      0.1052913
	      0.1043797
	      0.1269620
	      0.1396493
	      0.1110747
	      0.1043802
	      0.1037875
	      0.1029197
	      0.1029196
	      0.1037870
	      0.1043795
	      0.1110737
	      0.1396486
	      0.1901111
	      0.1396501
	      0.1269628
	      0.1259038
	      0.1252380
	      0.1252379
	      0.1259033
	      0.1269620
	      0.1396487
	      0.1901088
	      0.1807866
	      0.1428816
	      0.1356649
	      0.1352452
	      0.1354023
	      0.1354022
	      0.1352447
	      0.1356641
	      0.1428805
	      0.1807850
	      0.1428820
	      0.1157624
	      0.1116390
	      0.1099983
	      0.1095486
	      0.1095485
	      0.1099981
	      0.1116385
	      0.1157627
	      0.1428813
	      0.1356651
	      0.1116394
	      0.1330172
	      0.1285073
	      0.1406820
	      0.1406821
	      0.1285076
	      0.1330150
	      0.1116399
	      0.1356639
	      0.1352452
	      0.1099985
	      0.1285062
	      0.1136578
	      0.1260067
	      0.1260073
	      0.1136587
	      0.1285040
	      0.1099991
	      0.1352438
	      0.1354022
	      0.1095487
	      0.1406812
	      0.1260070
	      0.1399181
	      0.1399179
	      0.1260073
	      0.1406794
	      0.1095489
	      0.1354007
	      0.1354019
	      0.1095486
	      0.1406812
	      0.1260073
	      0.1399178
	      0.1399177
	      0.1260076
	      0.1406794
	      0.1095488
	      0.1354005
	      0.1352444
	      0.1099979
	      0.1285071
	      0.1136587
	      0.1260073
	      0.1260079
	      0.1136596
	      0.1285050
	      0.1099985
	      0.1352430
	      0.1356636
	      0.1116384
	      0.1330139
	      0.1285036
	      0.1406785
	      0.1406786
	      0.1285039
	      0.1330116
	      0.1116390
	      0.1356624
	      0.1428799
	      0.1157629
	      0.1116399
	      0.1099989
	      0.1095490
	      0.1095490
	      0.1099987
	      0.1116393
	      0.1157631
	      0.1428792
	      0.1807847
	      0.1428807
	      0.1356634
	      0.1352435
	      0.1354005
	      0.1354004
	      0.1352430
	      0.1356626
	      0.1428795
	      0.1807832
	      0.1467327
	      0.1241696
	      0.1223640
	      0.1246176
	      0.1251994
	      0.1251993
	      0.1246173
	      0.1223635
	      0.1241690
	      0.1467324
	      0.1241702
	      0.0996906
	      0.0999075
	      0.1008989
	      0.1004919
	      0.1004918
	      0.1008987
	      0.0999071
	      0.0996912
	      0.1241708
	      0.1223646
	      0.0999079
	      0.1184435
	      0.1194144
	      0.1260996
	      0.1260982
	      0.1194136
	      0.1184431
	      0.0999086
	      0.1223647
	      0.1246181
	      0.1008994
	      0.1194138
	      0.1091993
	      0.1157220
	      0.1157205
	      0.1091989
	      0.1194143
	      0.1008998
	      0.1246179
	      0.1251997
	      0.1004924
	      0.1260993
	      0.1157222
	      0.1260509
	      0.1260491
	      0.1157212
	      0.1260997
	      0.1004920
	      0.1251996
	      0.1251995
	      0.1004920
	      0.1260976
	      0.1157201
	      0.1260483
	      0.1260465
	      0.1157192
	      0.1260981
	      0.1004917
	      0.1251993
	      0.1246173
	      0.1008988
	      0.1194134
	      0.1091985
	      0.1157208
	      0.1157194
	      0.1091981
	      0.1194139
	      0.1008993
	      0.1246171
	      0.1223634
	      0.0999071
	      0.1184423
	      0.1194141
	      0.1260991
	      0.1260977
	      0.1194133
	      0.1184419
	      0.0999077
	      0.1223635
	      0.1241689
	      0.0996916
	      0.0999086
	      0.1008999
	      0.1004923
	      0.1004921
	      0.1008998
	      0.0999082
	      0.0996922
	      0.1241695
	      0.1467330
	      0.1241706
	      0.1223646
	      0.1246180
	      0.1251998
	      0.1251997
	      0.1246177
	      0.1223641
	      0.1241700
	      0.1467326
	      0.1466787
	      0.1241798
	      0.1224279
	      0.1246545
	      0.1251686
	      0.1251685
	      0.1246541
	      0.1224275
	      0.1241794
	      0.1466785
	      0.1241803
	      0.0997762
	      0.1001432
	      0.1009047
	      0.1000513
	      0.1000511
	      0.1009043
	      0.1001429
	      0.0997768
	      0.1241813
	      0.1224286
	      0.1001436
	      0.1174847
	      0.1185307
	      0.1270838
	      0.1270838
	      0.1185301
	      0.1174835
	      0.1001435
	      0.1224289
	      0.1246551
	      0.1009051
	      0.1185300
	      0.1089582
	      0.1178789
	      0.1178792
	      0.1089582
	      0.1185294
	      0.1009048
	      0.1246552
	      0.1251691
	      0.1000516
	      0.1270832
	      0.1178791
	      0.1304185
	      0.1304185
	      0.1178786
	      0.1270828
	      0.1000505
	      0.1251692
	      0.1251687
	      0.1000511
	      0.1270832
	      0.1178792
	      0.1304184
	      0.1304183
	      0.1178787
	      0.1270828
	      0.1000500
	      0.1251689
	      0.1246542
	      0.1009042
	      0.1185297
	      0.1089579
	      0.1178786
	      0.1178788
	      0.1089578
	      0.1185291
	      0.1009039
	      0.1246543
	      0.1224274
	      0.1001427
	      0.1174827
	      0.1185290
	      0.1270822
	      0.1270822
	      0.1185284
	      0.1174815
	      0.1001427
	      0.1224277
	      0.1241792
	      0.0997769
	      0.1001434
	      0.1009047
	      0.1000505
	      0.1000502
	      0.1009043
	      0.1001431
	      0.0997774
	      0.1241802
	      0.1466792
	      0.1241811
	      0.1224288
	      0.1246553
	      0.1251694
	      0.1251693
	      0.1246549
	      0.1224284
	      0.1241807
	      0.1466790
	      0.1808645
	      0.1429924
	      0.1358431
	      0.1354434
	      0.1355728
	      0.1355726
	      0.1354429
	      0.1358424
	      0.1429915
	      0.1808630
	      0.1429927
	      0.1158590
	      0.1118817
	      0.1101085
	      0.1094267
	      0.1094265
	      0.1101081
	      0.1118813
	      0.1158590
	      0.1429923
	      0.1358433
	      0.1118821
	      0.1325339
	      0.1279254
	      0.1405228
	      0.1405238
	      0.1279257
	      0.1325318
	      0.1118826
	      0.1358423
	      0.1354435
	      0.1101087
	      0.1279245
	      0.1130562
	      0.1258141
	      0.1258158
	      0.1130568
	      0.1279222
	      0.1101094
	      0.1354421
	      0.1355727
	      0.1094268
	      0.1405220
	      0.1258142
	      0.1394788
	      0.1394798
	      0.1258140
	      0.1405201
	      0.1094274
	      0.1355713
	      0.1355724
	      0.1094265
	      0.1405230
	      0.1258158
	      0.1394801
	      0.1394812
	      0.1258156
	      0.1405210
	      0.1094271
	      0.1355709
	      0.1354425
	      0.1101080
	      0.1279252
	      0.1130565
	      0.1258139
	      0.1258157
	      0.1130571
	      0.1279229
	      0.1101087
	      0.1354412
	      0.1358419
	      0.1118811
	      0.1325308
	      0.1279217
	      0.1405192
	      0.1405202
	      0.1279220
	      0.1325287
	      0.1118816
	      0.1358408
	      0.1429909
	      0.1158591
	      0.1118824
	      0.1101093
	      0.1094274
	      0.1094272
	      0.1101089
	      0.1118819
	      0.1158591
	      0.1429905
	      0.1808629
	      0.1429917
	      0.1358418
	      0.1354418
	      0.1355711
	      0.1355709
	      0.1354413
	      0.1358411
	      0.1429908
	      0.1808615
	      0.1906572
	      0.1399880
	      0.1272835
	      0.1262873
	      0.1256935
	      0.1256933
	      0.1262869
	      0.1272828
	      0.1399867
	      0.1906546
	      0.1399881
	      0.1110644
	      0.1043276
	      0.1040225
	      0.1035207
	      0.1035206
	      0.1040221
	      0.1043271
	      0.1110638
	      0.1399865
	      0.1272834
	      0.1043276
	      0.1056817
	      0.1013516
	      0.1053843
	      0.1053835
	      0.1013518
	      0.1056815
	      0.1043278
	      0.1272812
	      0.1262869
	      0.1040222
	      0.1013511
	      0.0949525
	      0.0996312
	      0.0996308
	      0.0949527
	      0.1013505
	      0.1040220
	      0.1262845
	      0.1256930
	      0.1035203
	      0.1053841
	      0.0996315
	      0.1037939
	      0.1037929
	      0.0996312
	      0.1053839
	      0.1035202
	      0.1256904
	      0.1256927
	      0.1035202
	      0.1053830
	      0.0996305
	      0.1037926
	      0.1037916
	      0.0996302
	      0.1053828
	      0.1035200
	      0.1256902
	      0.1262862
	      0.1040216
	      0.1013518
	      0.0949528
	      0.0996309
	      0.0996305
	      0.0949530
	      0.1013511
	      0.1040214
	      0.1262837
	      0.1272820
	      0.1043265
	      0.1056806
	      0.1013505
	      0.1053834
	      0.1053826
	      0.1013507
	      0.1056804
	      0.1043267
	      0.1272798
	      0.1399859
	      0.1110640
	      0.1043273
	      0.1040215
	      0.1035198
	      0.1035197
	      0.1040211
	      0.1043267
	      0.1110634
	      0.1399842
	      0.1906538
	      0.1399856
	      0.1272804
	      0.1262838
	      0.1256898
	      0.1256897
	      0.1262833
	      0.1272797
	      0.1399843
	      0.1906512
	      0.0837303
	      0.0645006
	      0.0643510
	      0.0703538
	      0.0711140
	      0.0711140
	      0.0703538
	      0.0643509
	      0.0645006
	      0.0837298
	      0.0645008
	      0.0684352
	      0.0685918
	      0.0812039
	      0.0805579
	      0.0805578
	      0.0812035
	      0.0685916
	      0.0684347
	      0.0645007
	      0.0643510
	      0.0685915
	      0.0554785
	      0.0669908
	      0.0647470
	      0.0647467
	      0.0669902
	      0.0554781
	      0.0685907
	      0.0643506
	      0.0703537
	      0.0812034
	      0.0669908
	      0.0794362
	      0.0778559
	      0.0778556
	      0.0794356
	      0.0669904
	      0.0812023
	      0.0703528
	      0.0711139
	      0.0805576
	      0.0647470
	      0.0778559
	      0.0767223
	      0.0767220
	      0.0778555
	      0.0647467
	      0.0805564
	      0.0711130
	      0.0711139
	      0.0805573
	      0.0647466
	      0.0778554
	      0.0767219
	      0.0767217
	      0.0778550
	      0.0647463
	      0.0805562
	      0.0711130
	      0.0703536
	      0.0812029
	      0.0669899
	      0.0794352
	      0.0778552
	      0.0778550
	      0.0794346
	      0.0669895
	      0.0812018
	      0.0703528
	      0.0643508
	      0.0685910
	      0.0554778
	      0.0669901
	      0.0647465
	      0.0647463
	      0.0669895
	      0.0554774
	      0.0685902
	      0.0643504
	      0.0645006
	      0.0684346
	      0.0685901
	      0.0812017
	      0.0805559
	      0.0805558
	      0.0812013
	      0.0685899
	      0.0684342
	      0.0645004
	      0.0837302
	      0.0645007
	      0.0643504
	      0.0703527
	      0.0711129
	      0.0711129
	      0.0703526
	      0.0643504
	      0.0645006
	      0.0837297
	      1.0603841
	      0.6045678
	      0.6031150
	      0.6283731
	      0.5979768
	      0.5979748
	      0.6283691
	      0.6031116
	      0.6045601
	      1.0603591
	      0.6045625
	      0.1178799
	      0.1179225
	      0.1493397
	      0.1254766
	      0.1254757
	      0.1493389
	      0.1179245
	      0.1178803
	      0.6045468
	      0.6031080
	      0.1179218
	      0.1203929
	      0.1656812
	      0.1395704
	      0.1395690
	      0.1656797
	      0.1203951
	      0.1179224
	      0.6030896
	      0.6283661
	      0.1493398
	      0.1656822
	      0.2245059
	      0.1973973
	      0.1973955
	      0.2245040
	      0.1656843
	      0.1493400
	      0.6283462
	      0.5979693
	      0.1254767
	      0.1395714
	      0.1973971
	      0.1670682
	      0.1670664
	      0.1973952
	      0.1395740
	      0.1254774
	      0.5979499
	      0.5979667
	      0.1254753
	      0.1395692
	      0.1973943
	      0.1670652
	      0.1670634
	      0.1973923
	      0.1395718
	      0.1254760
	      0.5979472
	      0.6283614
	      0.1493386
	      0.1656800
	      0.2245029
	      0.1973940
	      0.1973922
	      0.2245009
	      0.1656821
	      0.1493388
	      0.6283414
	      0.6031047
	      0.1179247
	      0.1203962
	      0.1656846
	      0.1395742
	      0.1395728
	      0.1656831
	      0.1203984
	      0.1179253
	      0.6030863
	      0.6045532
	      0.1178802
	      0.1179226
	      0.1493397
	      0.1254771
	      0.1254761
	      0.1493389
	      0.1179246
	      0.1178806
	      0.6045375
	      1.0603494
	      0.6045399
	      0.6030826
	      0.6283385
	      0.5979418
	      0.5979397
	      0.6283345
	      0.6030793
	      0.6045322
	      1.0603244
