# vtk DataFile Version 3.0
test_file
ASCII
DATASET POLYDATA
POINTS 1000 float
   0.65000 	   -0.00000 	    0.00000
   0.65000 	   -0.00000 	    1.00000
   0.65000 	    0.00000 	    2.00000
   0.65000 	    0.00000 	    3.00000
   0.65000 	    0.00000 	    4.00000
   0.65000 	    0.00000 	    5.00000
   0.65000 	    0.00000 	    6.00000
   0.65000 	    0.00000 	    7.00000
   0.65000 	   -0.00000 	    8.00000
   0.65000 	    0.00000 	    9.00000
   0.65000 	    1.00000 	    0.00000
   0.65000 	    1.00000 	    1.00000
   0.65000 	    1.00000 	    2.00000
   0.65000 	    1.00000 	    3.00000
   0.65000 	    1.00000 	    4.00000
   0.65000 	    1.00000 	    5.00000
   0.65000 	    1.00000 	    6.00000
   0.65000 	    1.00000 	    7.00000
   0.65000 	    1.00000 	    8.00000
   0.65000 	    1.00000 	    9.00000
   0.65000 	    2.00000 	    0.00000
   0.65000 	    2.00000 	    1.00000
   0.65000 	    2.00000 	    2.00000
   0.65000 	    2.00000 	    3.00000
   0.65000 	    2.00000 	    4.00000
   0.65000 	    2.00000 	    5.00000
   0.65000 	    2.00000 	    6.00000
   0.65000 	    2.00000 	    7.00000
   0.65000 	    2.00000 	    8.00000
   0.65000 	    2.00000 	    9.00000
   0.65000 	    3.00000 	    0.00000
   0.65000 	    3.00000 	    1.00000
   0.65000 	    3.00000 	    2.00000
   0.65000 	    3.00000 	    3.00000
   0.65000 	    3.00000 	    4.00000
   0.65000 	    3.00000 	    5.00000
   0.65000 	    3.00000 	    6.00000
   0.65000 	    3.00000 	    7.00000
   0.65000 	    3.00000 	    8.00000
   0.65000 	    3.00000 	    9.00000
   0.65000 	    4.00000 	    0.00000
   0.65000 	    4.00000 	    1.00000
   0.65000 	    4.00000 	    2.00000
   0.65000 	    4.00000 	    3.00000
   0.65000 	    4.00000 	    4.00000
   0.65000 	    4.00000 	    5.00000
   0.65000 	    4.00000 	    6.00000
   0.65000 	    4.00000 	    7.00000
   0.65000 	    4.00000 	    8.00000
   0.65000 	    4.00000 	    9.00000
   0.65000 	    5.00000 	    0.00000
   0.65000 	    5.00000 	    1.00000
   0.65000 	    5.00000 	    2.00000
   0.65000 	    5.00000 	    3.00000
   0.65000 	    5.00000 	    4.00000
   0.65000 	    5.00000 	    5.00000
   0.65000 	    5.00000 	    6.00000
   0.65000 	    5.00000 	    7.00000
   0.65000 	    5.00000 	    8.00000
   0.65000 	    5.00000 	    9.00000
   0.65000 	    6.00000 	    0.00000
   0.65000 	    6.00000 	    1.00000
   0.65000 	    6.00000 	    2.00000
   0.65000 	    6.00000 	    3.00000
   0.65000 	    6.00000 	    4.00000
   0.65000 	    6.00000 	    5.00000
   0.65000 	    6.00000 	    6.00000
   0.65000 	    6.00000 	    7.00000
   0.65000 	    6.00000 	    8.00000
   0.65000 	    6.00000 	    9.00000
   0.65000 	    7.00000 	    0.00000
   0.65000 	    7.00000 	    1.00000
   0.65000 	    7.00000 	    2.00000
   0.65000 	    7.00000 	    3.00000
   0.65000 	    7.00000 	    4.00000
   0.65000 	    7.00000 	    5.00000
   0.65000 	    7.00000 	    6.00000
   0.65000 	    7.00000 	    7.00000
   0.65000 	    7.00000 	    8.00000
   0.65000 	    7.00000 	    9.00000
   0.65000 	    8.00000 	    0.00000
   0.65000 	    8.00000 	    1.00000
   0.65000 	    8.00000 	    2.00000
   0.65000 	    8.00000 	    3.00000
   0.65000 	    8.00000 	    4.00000
   0.65000 	    8.00000 	    5.00000
   0.65000 	    8.00000 	    6.00000
   0.65000 	    8.00000 	    7.00000
   0.65000 	    8.00000 	    8.00000
   0.65000 	    8.00000 	    9.00000
   0.65000 	    9.00000 	    0.00000
   0.65000 	    9.00000 	    1.00000
   0.65000 	    9.00000 	    2.00000
   0.65000 	    9.00000 	    3.00000
   0.65000 	    9.00000 	    4.00000
   0.65000 	    9.00000 	    5.00000
   0.65000 	    9.00000 	    6.00000
   0.65000 	    9.00000 	    7.00000
   0.65000 	    9.00000 	    8.00000
   0.65000 	    9.00000 	    9.00000
   1.65968 	   -0.11767 	   -0.11767
   1.65026 	   -0.12717 	    0.93594
   1.64774 	   -0.12758 	    1.96587
   1.65244 	   -0.13147 	    2.97260
   1.64933 	   -0.13111 	    3.98962
   1.64933 	   -0.13111 	    5.01038
   1.65244 	   -0.13147 	    6.02740
   1.64774 	   -0.12758 	    7.03413
   1.65026 	   -0.12716 	    8.06405
   1.65968 	   -0.11766 	    9.11766
   1.65026 	    0.93595 	   -0.12716
   1.63381 	    0.91313 	    0.91313
   1.62324 	    0.92154 	    1.95663
   1.62618 	    0.91791 	    2.95744
   1.62462 	    0.92168 	    3.98335
   1.62462 	    0.92168 	    5.01664
   1.62618 	    0.91791 	    6.04256
   1.62324 	    0.92154 	    7.04337
   1.63381 	    0.91313 	    8.08686
   1.65026 	    0.93595 	    9.12716
   1.64774 	    1.96587 	   -0.12758
   1.62324 	    1.95663 	    0.92154
   1.62619 	    1.95938 	    1.95938
   1.62587 	    1.95982 	    2.94948
   1.62775 	    1.96081 	    3.98011
   1.62775 	    1.96081 	    5.01988
   1.62587 	    1.95982 	    6.05051
   1.62618 	    1.95938 	    7.04061
   1.62324 	    1.95663 	    8.07845
   1.64774 	    1.96587 	    9.12758
   1.65244 	    2.97260 	   -0.13147
   1.62618 	    2.95743 	    0.91791
   1.62587 	    2.94948 	    1.95983
   1.62372 	    2.94848 	    2.94848
   1.62555 	    2.94803 	    3.98000
   1.62555 	    2.94803 	    5.01999
   1.62372 	    2.94848 	    6.05151
   1.62587 	    2.94948 	    7.04017
   1.62618 	    2.95744 	    8.08208
   1.65244 	    2.97260 	    9.13146
   1.64933 	    3.98962 	   -0.13111
   1.62462 	    3.98335 	    0.92168
   1.62775 	    3.98011 	    1.96082
   1.62555 	    3.98000 	    2.94803
   1.62738 	    3.97999 	    3.97999
   1.62738 	    3.97999 	    5.02000
   1.62555 	    3.98000 	    6.05196
   1.62775 	    3.98011 	    7.03918
   1.62462 	    3.98335 	    8.07832
   1.64933 	    3.98962 	    9.13110
   1.64933 	    5.01038 	   -0.13111
   1.62462 	    5.01664 	    0.92168
   1.62775 	    5.01988 	    1.96082
   1.62555 	    5.01999 	    2.94803
   1.62738 	    5.02000 	    3.97999
   1.62739 	    5.02000 	    5.02000
   1.62555 	    5.01999 	    6.05196
   1.62775 	    5.01988 	    7.03918
   1.62462 	    5.01664 	    8.07832
   1.64933 	    5.01038 	    9.13110
   1.65244 	    6.02739 	   -0.13147
   1.62618 	    6.04255 	    0.91791
   1.62587 	    6.05051 	    1.95983
   1.62372 	    6.05151 	    2.94848
   1.62555 	    6.05196 	    3.98000
   1.62555 	    6.05196 	    5.01999
   1.62372 	    6.05151 	    6.05151
   1.62587 	    6.05051 	    7.04017
   1.62618 	    6.04255 	    8.08208
   1.65244 	    6.02739 	    9.13146
   1.64774 	    7.03413 	   -0.12758
   1.62324 	    7.04337 	    0.92155
   1.62618 	    7.04061 	    1.95938
   1.62587 	    7.04017 	    2.94948
   1.62775 	    7.03918 	    3.98011
   1.62775 	    7.03918 	    5.01988
   1.62587 	    7.04017 	    6.05051
   1.62618 	    7.04061 	    7.04061
   1.62324 	    7.04336 	    8.07845
   1.64774 	    7.03412 	    9.12757
   1.65026 	    8.06405 	   -0.12716
   1.63381 	    8.08686 	    0.91314
   1.62324 	    8.07845 	    1.95663
   1.62618 	    8.08208 	    2.95744
   1.62462 	    8.07832 	    3.98335
   1.62462 	    8.07831 	    5.01664
   1.62618 	    8.08208 	    6.04256
   1.62324 	    8.07845 	    7.04337
   1.63381 	    8.08686 	    8.08686
   1.65026 	    8.06405 	    9.12716
   1.65968 	    9.11766 	   -0.11766
   1.65026 	    9.12716 	    0.93595
   1.64774 	    9.12757 	    1.96587
   1.65244 	    9.13146 	    2.97260
   1.64933 	    9.13110 	    3.98962
   1.64933 	    9.13110 	    5.01038
   1.65244 	    9.13146 	    6.02739
   1.64774 	    9.12757 	    7.03412
   1.65026 	    9.12716 	    8.06405
   1.65969 	    9.11766 	    9.11766
   2.50538 	   -0.17162 	   -0.17162
   2.53168 	   -0.18039 	    0.87248
   2.53984 	   -0.18705 	    1.91592
   2.53961 	   -0.19365 	    2.94827
   2.53686 	   -0.19740 	    3.98305
   2.53686 	   -0.19740 	    5.01694
   2.53961 	   -0.19365 	    6.05172
   2.53984 	   -0.18705 	    7.08407
   2.53168 	   -0.18039 	    8.12751
   2.50539 	   -0.17162 	    9.17162
   2.53168 	    0.87248 	   -0.18039
   2.59243 	    0.85765 	    0.85765
   2.61104 	    0.84848 	    1.92247
   2.61089 	    0.84258 	    2.95374
   2.60648 	    0.83689 	    3.98538
   2.60648 	    0.83689 	    5.01462
   2.61089 	    0.84258 	    6.04625
   2.61104 	    0.84848 	    7.07753
   2.59243 	    0.85765 	    8.14234
   2.53169 	    0.87248 	    9.18039
   2.53984 	    1.91592 	   -0.18705
   2.61104 	    1.92246 	    0.84848
   2.61988 	    1.92209 	    1.92209
   2.61393 	    1.91866 	    2.95395
   2.60512 	    1.91241 	    3.98412
   2.60512 	    1.91241 	    5.01587
   2.61393 	    1.91866 	    6.04605
   2.61988 	    1.92209 	    7.07790
   2.61105 	    1.92247 	    8.15151
   2.53985 	    1.91593 	    9.18704
   2.53961 	    2.94827 	   -0.19364
   2.61089 	    2.95374 	    0.84258
   2.61393 	    2.95394 	    1.91866
   2.60565 	    2.95277 	    2.95277
   2.59588 	    2.94936 	    3.98345
   2.59588 	    2.94936 	    5.01654
   2.60564 	    2.95277 	    6.04722
   2.61393 	    2.95395 	    7.08133
   2.61089 	    2.95374 	    8.15741
   2.53961 	    2.94827 	    9.19364
   2.53686 	    3.98305 	   -0.19740
   2.60648 	    3.98538 	    0.83689
   2.60512 	    3.98412 	    1.91241
   2.59587 	    3.98345 	    2.94936
   2.58468 	    3.98234 	    3.98234
   2.58468 	    3.98234 	    5.01765
   2.59587 	    3.98345 	    6.05063
   2.60512 	    3.98412 	    7.08758
   2.60649 	    3.98538 	    8.16310
   2.53686 	    3.98305 	    9.19739
   2.53686 	    5.01694 	   -0.19740
   2.60648 	    5.01461 	    0.83689
   2.60512 	    5.01586 	    1.91241
   2.59588 	    5.01654 	    2.94936
   2.58468 	    5.01765 	    3.98234
   2.58468 	    5.01765 	    5.01765
   2.59587 	    5.01654 	    6.05063
   2.60512 	    5.01586 	    7.08758
   2.60649 	    5.01461 	    8.16310
   2.53686 	    5.01694 	    9.19739
   2.53961 	    6.05172 	   -0.19364
   2.61089 	    6.04625 	    0.84258
   2.61393 	    6.04605 	    1.91866
   2.60564 	    6.04722 	    2.95277
   2.59587 	    6.05063 	    3.98345
   2.59587 	    6.05063 	    5.01654
   2.60564 	    6.04722 	    6.04722
   2.61393 	    6.04605 	    7.08133
[...]
POINT_DATA 1000
SCALARS C float
LOOKUP_TABLE default
	      1.1034944
	      0.6289117
	      0.6292692
	      0.6548760
	      0.6228799
	      0.6228770
	      0.6548715
	      0.6292674
	      0.6289041
	      1.1034682
	      0.6289061
	      0.1163559
	      0.1184469
	      0.1521177
	      0.1267764
	      0.1267745
	      0.1521158
	      0.1184504
	      0.1163555
	      0.6288897
	      0.6292617
	      0.1184463
	      0.1229253
	      0.1717124
	      0.1436029
	      0.1436004
	      0.1717098
	      0.1229290
	      0.1184473
	      0.6292423
	      0.6548689
	      0.1521181
	      0.1717139
	      0.2348070
	      0.2053590
	      0.2053563
	      0.2348039
	      0.1717172
	      0.1521189
	      0.6548480
	      0.6228722
	      0.1267768
	      0.1436042
	      0.2053588
	      0.1723772
	      0.1723745
	      0.2053558
	      0.1436078
	      0.1267779
	      0.6228516
	      0.6228686
	      0.1267741
	      0.1436006
	      0.2053547
	      0.1723730
	      0.1723703
	      0.2053517
	      0.1436042
	      0.1267752
	      0.6228480
	      0.6548636
	      0.1521154
	      0.1717101
	      0.2348024
	      0.2053542
	      0.2053515
	      0.2347992
	      0.1717135
	      0.1521162
	      0.6548426
	      0.6292604
	      0.1184510
	      0.1229308
	      0.1717176
	      0.1436080
	      0.1436055
	      0.1717150
	      0.1229345
	      0.1184520
	      0.6292409
	      0.6288968
	      0.1163551
	      0.1184479
	      0.1521185
	      0.1267775
	      0.1267756
	      0.1521167
	      0.1184514
	      0.1163547
	      0.6288803
	      1.1034588
	      0.6288824
	      0.6292352
	      0.6548400
	      0.6228432
	      0.6228403
	      0.6548355
	      0.6292335
	      0.6288747
	      1.1034326
	      0.0861623
	      0.0664027
	      0.0663201
	      0.0725429
	      0.0732898
	      0.0732897
	      0.0725429
	      0.0663200
	      0.0664025
	      0.0861617
	      0.0664029
	      0.0714855
	      0.0721381
	      0.0852661
	      0.0847326
	      0.0847324
	      0.0852663
	      0.0721376
	      0.0714853
	      0.0664023
	      0.0663199
	      0.0721379
	      0.0593100
	      0.0715013
	      0.0691999
	      0.0691998
	      0.0715020
	      0.0593093
	      0.0721377
	      0.0663189
	      0.0725426
	      0.0852656
	      0.0715010
	      0.0848009
	      0.0830144
	      0.0830143
	      0.0848016
	      0.0715003
	      0.0852654
	      0.0725411
	      0.0732895
	      0.0847323
	      0.0691998
	      0.0830146
	      0.0815124
	      0.0815124
	      0.0830155
	      0.0691992
	      0.0847320
	      0.0732880
	      0.0732896
	      0.0847321
	      0.0691997
	      0.0830144
	      0.0815123
	      0.0815123
	      0.0830152
	      0.0691990
	      0.0847318
	      0.0732880
	      0.0725426
	      0.0852660
	      0.0715019
	      0.0848018
	      0.0830155
	      0.0830154
	      0.0848025
	      0.0715012
	      0.0852658
	      0.0725411
	      0.0663197
	      0.0721371
	      0.0593089
	      0.0715002
	      0.0691990
	      0.0691989
	      0.0715009
	      0.0593082
	      0.0721369
	      0.0663186
	      0.0664024
	      0.0714853
	      0.0721372
	      0.0852651
	      0.0847317
	      0.0847315
	      0.0852653
	      0.0721367
	      0.0714850
	      0.0664017
	      0.0861619
	      0.0664021
	      0.0663186
	      0.0725408
	      0.0732878
	      0.0732878
	      0.0725408
	      0.0663185
	      0.0664019
	      0.0861613
	      0.1966643
	      0.1445497
	      0.1314159
	      0.1302868
	      0.1295508
	      0.1295506
	      0.1302863
	      0.1314151
	      0.1445484
	      0.1966621
	      0.1445498
	      0.1154829
	      0.1086603
	      0.1081326
	      0.1073871
	      0.1073870
	      0.1081321
	      0.1086595
	      0.1154819
	      0.1445492
	      0.1314159
	      0.1086601
	      0.1077650
	      0.1020881
	      0.1072757
	      0.1072751
	      0.1020883
	      0.1077638
	      0.1086583
	      0.1314152
	      0.1302866
	      0.1081320
	      0.1020874
	      0.0946674
	      0.1004012
	      0.1004007
	      0.0946674
	      0.1020857
	      0.1081300
	      0.1302858
	      0.1295506
	      0.1073864
	      0.1072752
	      0.1004013
	      0.1061663
	      0.1061650
	      0.1004010
	      0.1072744
	      0.1073840
	      0.1295496
	      0.1295503
	      0.1073862
	      0.1072746
	      0.1004004
	      0.1061646
	      0.1061633
	      0.1004001
	      0.1072738
	      0.1073838
	      0.1295494
	      0.1302859
	      0.1081311
	      0.1020877
	      0.0946671
	      0.1004008
	      0.1004003
	      0.0946671
	      0.1020860
	      0.1081291
	      0.1302850
	      0.1314146
	      0.1086587
	      0.1077629
	      0.1020851
	      0.1072739
	      0.1072733
	      0.1020853
	      0.1077617
	      0.1086570
	      0.1314139
	      0.1445478
	      0.1154817
	      0.1086575
	      0.1081291
	      0.1073833
	      0.1073831
	      0.1081286
	      0.1086567
	      0.1154807
	      0.1445472
	      0.1966617
	      0.1445486
	      0.1314146
	      0.1302853
	      0.1295493
	      0.1295491
	      0.1302848
	      0.1314139
	      0.1445473
	      0.1966594
	      0.1867656
	      0.1478359
	      0.1404651
	      0.1400322
	      0.1401834
	      0.1401832
	      0.1400318
	      0.1404643
	      0.1478348
	      0.1867641
	      0.1478362
	      0.1201730
	      0.1160812
	      0.1141899
	      0.1137187
	      0.1137186
	      0.1141895
	      0.1160806
	      0.1201732
	      0.1478357
	      0.1404653
	      0.1160815
	      0.1390222
	      0.1350821
	      0.1481737
	      0.1481738
	      0.1350825
	      0.1390201
	      0.1160823
	      0.1404643
	      0.1400323
	      0.1141901
	      0.1350811
	      0.1205405
	      0.1337161
	      0.1337167
	      0.1205415
	      0.1350791
	      0.1141910
	      0.1400310
	      0.1401833
	      0.1137188
	      0.1481728
	      0.1337164
	      0.1486658
	      0.1486658
	      0.1337169
	      0.1481712
	      0.1137193
	      0.1401819
	      0.1401830
	      0.1137186
	      0.1481730
	      0.1337167
	      0.1486657
	      0.1486656
	      0.1337173
	      0.1481714
	      0.1137191
	      0.1401816
	      0.1400314
	      0.1141894
	      0.1350820
	      0.1205414
	      0.1337170
	      0.1337176
	      0.1205424
	      0.1350800
	      0.1141903
	      0.1400301
	      0.1404638
	      0.1160806
	      0.1390192
	      0.1350785
	      0.1481704
	      0.1481706
	      0.1350790
	      0.1390172
	      0.1160813
	      0.1404627
	      0.1478341
	      0.1201735
	      0.1160823
	      0.1141909
	      0.1137194
	      0.1137192
	      0.1141905
	      0.1160817
	      0.1201738
	      0.1478336
	      0.1867639
	      0.1478351
	      0.1404637
	      0.1400307
	      0.1401817
	      0.1401816
	      0.1400302
	      0.1404630
	      0.1478339
	      0.1867623
	      0.1510609
	      0.1282473
	      0.1264412
	      0.1287643
	      0.1294090
	      0.1294089
	      0.1287640
	      0.1264407
	      0.1282467
	      0.1510606
	      0.1282478
	      0.1031031
	      0.1033932
	      0.1042204
	      0.1038761
	      0.1038761
	      0.1042202
	      0.1033927
	      0.1031038
	      0.1282485
	      0.1264419
	      0.1033937
	      0.1233933
	      0.1242494
	      0.1316674
	      0.1316659
	      0.1242490
	      0.1233927
	      0.1033943
	      0.1264419
	      0.1287649
	      0.1042209
	      0.1242485
	      0.1134891
	      0.1210688
	      0.1210675
	      0.1134891
	      0.1242485
	      0.1042212
	      0.1287646
	      0.1294093
	      0.1038765
	      0.1316670
	      0.1210691
	      0.1328758
	      0.1328746
	      0.1210687
	      0.1316666
	      0.1038765
	      0.1294091
	      0.1294091
	      0.1038763
	      0.1316653
	      0.1210673
	      0.1328738
	      0.1328726
	      0.1210669
	      0.1316650
	      0.1038763
	      0.1294089
	      0.1287641
	      0.1042203
	      0.1242488
	      0.1134889
	      0.1210685
	      0.1210671
	      0.1134889
	      0.1242488
	      0.1042206
	      0.1287639
	      0.1264406
	      0.1033927
	      0.1233917
	      0.1242483
	      0.1316661
	      0.1316645
	      0.1242479
	      0.1233912
	      0.1033933
	      0.1264406
	      0.1282465
	      0.1031041
	      0.1033943
	      0.1042213
	      0.1038767
	      0.1038767
	      0.1042211
	      0.1033938
	      0.1031048
	      0.1282471
	      0.1510612
	      0.1282483
	      0.1264418
	      0.1287647
	      0.1294093
	      0.1294093
	      0.1287644
	      0.1264413
	      0.1282477
	      0.1510609
	      0.1510273
	      0.1282727
	      0.1265282
	      0.1288422
	      0.1294126
	      0.1294125
	      0.1288418
	      0.1265278
	      0.1282723
	      0.1510272
	      0.1282733
	      0.1031906
	      0.1035450
	      0.1043638
	      0.1036222
	      0.1036220
	      0.1043635
	      0.1035447
	      0.1031911
	      0.1282742
	      0.1265289
	      0.1035455
	      0.1224736
	      0.1232160
	      0.1313870
	      0.1313870
	      0.1232154
	      0.1224723
	      0.1035456
	      0.1265292
	      0.1288428
	      0.1043643
	      0.1232151
	      0.1121318
	      0.1203322
	      0.1203326
	      0.1121316
	      0.1232140
	      0.1043641
	      0.1288429
	      0.1294130
	      0.1036225
	      0.1313863
	      0.1203323
	      0.1321218
	      0.1321220
	      0.1203317
	      0.1313853
	      0.1036217
	      0.1294131
	      0.1294127
	      0.1036221
	      0.1313863
	      0.1203325
	      0.1321219
	      0.1321220
	      0.1203319
	      0.1313853
	      0.1036213
	      0.1294128
	      0.1288419
	      0.1043635
	      0.1232149
	      0.1121311
	      0.1203317
	      0.1203320
	      0.1121310
	      0.1232138
	      0.1043633
	      0.1288420
	      0.1265277
	      0.1035446
	      0.1224714
	      0.1232135
	      0.1313846
	      0.1313845
	      0.1232129
	      0.1224701
	      0.1035447
	      0.1265280
	      0.1282721
	      0.1031913
	      0.1035455
	      0.1043641
	      0.1036218
	      0.1036216
	      0.1043638
	      0.1035452
	      0.1031918
	      0.1282730
	      0.1510278
	      0.1282741
	      0.1265291
	      0.1288430
	      0.1294134
	      0.1294133
	      0.1288426
	      0.1265287
	      0.1282736
	      0.1510277
	      0.1868533
	      0.1479460
	      0.1406428
	      0.1402440
	      0.1403638
	      0.1403636
	      0.1402435
	      0.1406421
	      0.1479450
	      0.1868519
	      0.1479463
	      0.1202027
	      0.1163054
	      0.1145612
	      0.1137946
	      0.1137943
	      0.1145607
	      0.1163049
	      0.1202027
	      0.1479460
	      0.1406431
	      0.1163057
	      0.1393209
	      0.1349716
	      0.1483236
	      0.1483243
	      0.1349717
	      0.1393191
	      0.1163065
	      0.1406421
	      0.1402442
	      0.1145614
	      0.1349707
	      0.1198964
	      0.1333640
	      0.1333654
	      0.1198967
	      0.1349686
	      0.1145625
	      0.1402429
	      0.1403638
	      0.1137948
	      0.1483228
	      0.1333641
	      0.1479133
	      0.1479138
	      0.1333638
	      0.1483215
	      0.1137953
	      0.1403624
	      0.1403634
	      0.1137944
	      0.1483236
	      0.1333654
	      0.1479140
	      0.1479144
	      0.1333650
	      0.1483223
	      0.1137949
	      0.1403620
	      0.1402432
	      0.1145606
	      0.1349712
	      0.1198963
	      0.1333637
	      0.1333652
	      0.1198966
	      0.1349691
	      0.1145617
	      0.1402419
	      0.1406416
	      0.1163048
	      0.1393184
	      0.1349681
	      0.1483208
	      0.1483215
	      0.1349682
	      0.1393166
	      0.1163056
	      0.1406406
	      0.1479445
	      0.1202029
	      0.1163064
	      0.1145624
	      0.1137954
	      0.1137951
	      0.1145619
	      0.1163060
	      0.1202029
	      0.1479441
	      0.1868518
	      0.1479454
	      0.1406416
	      0.1402425
	      0.1403622
	      0.1403620
	      0.1402420
	      0.1406409
	      0.1479445
	      0.1868504
	      0.1971967
	      0.1448835
	      0.1317305
	      0.1306695
	      0.1300142
	      0.1300140
	      0.1306690
	      0.1317297
	      0.1448822
	      0.1971942
	      0.1448835
	      0.1154860
	      0.1084870
	      0.1081255
	      0.1074726
	      0.1074726
	      0.1081250
	      0.1084864
	      0.1154855
	      0.1448820
	      0.1317304
	      0.1084870
	      0.1079553
	      0.1026378
	      0.1076682
	      0.1076672
	      0.1026380
	      0.1079553
	      0.1084865
	      0.1317283
	      0.1306691
	      0.1081251
	      0.1026374
	      0.0958845
	      0.1018438
	      0.1018430
	      0.0958845
	      0.1026372
	      0.1081242
	      0.1306667
	      0.1300137
	      0.1074721
	      0.1076681
	      0.1018441
	      0.1078546
	      0.1078531
	      0.1018438
	      0.1076686
	      0.1074711
	      0.1300112
	      0.1300134
	      0.1074721
	      0.1076668
	      0.1018427
	      0.1078525
	      0.1078510
	      0.1018424
	      0.1076674
	      0.1074710
	      0.1300109
	      0.1306683
	      0.1081243
	      0.1026380
	      0.0958845
	      0.1018435
	      0.1018427
	      0.0958845
	      0.1026378
	      0.1081234
	      0.1306659
	      0.1317290
	      0.1084857
	      0.1079545
	      0.1026372
	      0.1076683
	      0.1076673
	      0.1026373
	      0.1079546
	      0.1084852
	      0.1317269
	      0.1448813
	      0.1154854
	      0.1084859
	      0.1081235
	      0.1074706
	      0.1074705
	      0.1081230
	      0.1084852
	      0.1154849
	      0.1448798
	      0.1971934
	      0.1448811
	      0.1317275
	      0.1306661
	      0.1300106
	      0.1300104
	      0.1306655
	      0.1317268
	      0.1448798
	      0.1971909
	      0.0868707
	      0.0668411
	      0.0667254
	      0.0729844
	      0.0737560
	      0.0737560
	      0.0729843
	      0.0667253
	      0.0668410
	      0.0868702
	      0.0668413
	      0.0715621
	      0.0720641
	      0.0852224
	      0.0846311
	      0.0846309
	      0.0852220
	      0.0720639
	      0.0715616
	      0.0668411
	      0.0667253
	      0.0720638
	      0.0588028
	      0.0709626
	      0.0683103
	      0.0683101
	      0.0709621
	      0.0588023
	      0.0720630
	      0.0667249
	      0.0729842
	      0.0852219
	      0.0709626
	      0.0840174
	      0.0815377
	      0.0815375
	      0.0840167
	      0.0709620
	      0.0852209
	      0.0729834
	      0.0737559
	      0.0846307
	      0.0683102
	      0.0815376
	      0.0790638
	      0.0790637
	      0.0815371
	      0.0683097
	      0.0846296
	      0.0737550
	      0.0737559
	      0.0846305
	      0.0683099
	      0.0815373
	      0.0790635
	      0.0790634
	      0.0815368
	      0.0683095
	      0.0846294
	      0.0737550
	      0.0729841
	      0.0852214
	      0.0709617
	      0.0840163
	      0.0815369
	      0.0815367
	      0.0840157
	      0.0709612
	      0.0852204
	      0.0729833
	      0.0667251
	      0.0720633
	      0.0588021
	      0.0709617
	      0.0683096
	      0.0683094
	      0.0709612
	      0.0588016
	      0.0720626
	      0.0667248
	      0.0668410
	      0.0715615
	      0.0720625
	      0.0852203
	      0.0846291
	      0.0846290
	      0.0852199
	      0.0720623
	      0.0715611
	      0.0668408
	      0.0868706
	      0.0668411
	      0.0667248
	      0.0729833
	      0.0737549
	      0.0737549
	      0.0729832
	      0.0667247
	      0.0668410
	      0.0868700
	      1.1032281
	      0.6284871
	      0.6287268
	      0.6548474
	      0.6228110
	      0.6228089
	      0.6548434
	      0.6287234
	      0.6284792
	      1.1032025
	      0.6284817
	      0.1179113
	      0.1196195
	      0.1532036
	      0.1279730
	      0.1279721
	      0.1532029
	      0.1196216
	      0.1179117
	      0.6284658
	      0.6287195
	      0.1196189
	      0.1233446
	      0.1715975
	      0.1437787
	      0.1437772
	      0.1715961
	      0.1233468
	      0.1196195
	      0.6287009
	      0.6548403
	      0.1532037
	      0.1715985
	      0.2340185
	      0.2051490
	      0.2051474
	      0.2340166
	      0.1716006
	      0.1532040
	      0.6548203
	      0.6228034
	      0.1279732
	      0.1437797
	      0.2051489
	      0.1731003
	      0.1730986
	      0.2051472
	      0.1437822
	      0.1279738
	      0.6227839
	      0.6228007
	      0.1279718
	      0.1437775
	      0.2051462
	      0.1730975
	      0.1730959
	      0.2051444
	      0.1437800
	      0.1279724
	      0.6227813
	      0.6548356
	      0.1532025
	      0.1715964
	      0.2340155
	      0.2051460
	      0.2051443
	      0.2340136
	      0.1715985
	      0.1532028
	      0.6548156
	      0.6287163
	      0.1196219
	      0.1233480
	      0.1716009
	      0.1437825
	      0.1437810
	      0.1715995
	      0.1233503
	      0.1196225
	      0.6286977
	      0.6284722
	      0.1179117
	      0.1196198
	      0.1532037
	      0.1279734
	      0.1279725
	      0.1532029
	      0.1196219
	      0.1179121
	      0.6284562
	      1.1031926
	      0.6284587
	      0.6286939
	      0.6548125
	      0.6227757
	      0.6227737
	      0.6548085
	      0.6286905
	      0.6284509
	      1.1031670
