# vtk DataFile Version 3.0
test_file
ASCII
DATASET POLYDATA
POINTS 1000 float
   0.87500 	   -0.00000 	    0.00000
   0.87500 	   -0.00000 	    1.00000
   0.87500 	    0.00000 	    2.00000
   0.87500 	    0.00000 	    3.00000
   0.87500 	    0.00000 	    4.00000
   0.87500 	    0.00000 	    5.00000
   0.87500 	    0.00000 	    6.00000
   0.87500 	    0.00000 	    7.00000
   0.87500 	   -0.00000 	    8.00000
   0.87500 	    0.00000 	    9.00000
   0.87500 	    1.00000 	    0.00000
   0.87500 	    1.00000 	    1.00000
   0.87500 	    1.00000 	    2.00000
   0.87500 	    1.00000 	    3.00000
   0.87500 	    1.00000 	    4.00000
   0.87500 	    1.00000 	    5.00000
   0.87500 	    1.00000 	    6.00000
   0.87500 	    1.00000 	    7.00000
   0.87500 	    1.00000 	    8.00000
   0.87500 	    1.00000 	    9.00000
   0.87500 	    2.00000 	    0.00000
   0.87500 	    2.00000 	    1.00000
   0.87500 	    2.00000 	    2.00000
   0.87500 	    2.00000 	    3.00000
   0.87500 	    2.00000 	    4.00000
   0.87500 	    2.00000 	    5.00000
   0.87500 	    2.00000 	    6.00000
   0.87500 	    2.00000 	    7.00000
   0.87500 	    2.00000 	    8.00000
   0.87500 	    2.00000 	    9.00000
   0.87500 	    3.00000 	    0.00000
   0.87500 	    3.00000 	    1.00000
   0.87500 	    3.00000 	    2.00000
   0.87500 	    3.00000 	    3.00000
   0.87500 	    3.00000 	    4.00000
   0.87500 	    3.00000 	    5.00000
   0.87500 	    3.00000 	    6.00000
   0.87500 	    3.00000 	    7.00000
   0.87500 	    3.00000 	    8.00000
   0.87500 	    3.00000 	    9.00000
   0.87500 	    4.00000 	    0.00000
   0.87500 	    4.00000 	    1.00000
   0.87500 	    4.00000 	    2.00000
   0.87500 	    4.00000 	    3.00000
   0.87500 	    4.00000 	    4.00000
   0.87500 	    4.00000 	    5.00000
   0.87500 	    4.00000 	    6.00000
   0.87500 	    4.00000 	    7.00000
   0.87500 	    4.00000 	    8.00000
   0.87500 	    4.00000 	    9.00000
   0.87500 	    5.00000 	    0.00000
   0.87500 	    5.00000 	    1.00000
   0.87500 	    5.00000 	    2.00000
   0.87500 	    5.00000 	    3.00000
   0.87500 	    5.00000 	    4.00000
   0.87500 	    5.00000 	    5.00000
   0.87500 	    5.00000 	    6.00000
   0.87500 	    5.00000 	    7.00000
   0.87500 	    5.00000 	    8.00000
   0.87500 	    5.00000 	    9.00000
   0.87500 	    6.00000 	    0.00000
   0.87500 	    6.00000 	    1.00000
   0.87500 	    6.00000 	    2.00000
   0.87500 	    6.00000 	    3.00000
   0.87500 	    6.00000 	    4.00000
   0.87500 	    6.00000 	    5.00000
   0.87500 	    6.00000 	    6.00000
   0.87500 	    6.00000 	    7.00000
   0.87500 	    6.00000 	    8.00000
   0.87500 	    6.00000 	    9.00000
   0.87500 	    7.00000 	    0.00000
   0.87500 	    7.00000 	    1.00000
   0.87500 	    7.00000 	    2.00000
   0.87500 	    7.00000 	    3.00000
   0.87500 	    7.00000 	    4.00000
   0.87500 	    7.00000 	    5.00000
   0.87500 	    7.00000 	    6.00000
   0.87500 	    7.00000 	    7.00000
   0.87500 	    7.00000 	    8.00000
   0.87500 	    7.00000 	    9.00000
   0.87500 	    8.00000 	    0.00000
   0.87500 	    8.00000 	    1.00000
   0.87500 	    8.00000 	    2.00000
   0.87500 	    8.00000 	    3.00000
   0.87500 	    8.00000 	    4.00000
   0.87500 	    8.00000 	    5.00000
   0.87500 	    8.00000 	    6.00000
   0.87500 	    8.00000 	    7.00000
   0.87500 	    8.00000 	    8.00000
   0.87500 	    8.00000 	    9.00000
   0.87500 	    9.00000 	    0.00000
   0.87500 	    9.00000 	    1.00000
   0.87500 	    9.00000 	    2.00000
   0.87500 	    9.00000 	    3.00000
   0.87500 	    9.00000 	    4.00000
   0.87500 	    9.00000 	    5.00000
   0.87500 	    9.00000 	    6.00000
   0.87500 	    9.00000 	    7.00000
   0.87500 	    9.00000 	    8.00000
   0.87500 	    9.00000 	    9.00000
   1.89050 	   -0.16373 	   -0.16373
   1.87839 	   -0.17679 	    0.91295
   1.87629 	   -0.17689 	    1.95292
   1.88285 	   -0.18217 	    2.96253
   1.87829 	   -0.18160 	    3.98593
   1.87829 	   -0.18160 	    5.01406
   1.88285 	   -0.18217 	    6.03746
   1.87629 	   -0.17689 	    7.04708
   1.87839 	   -0.17679 	    8.08704
   1.89050 	   -0.16372 	    9.16372
   1.87839 	    0.91295 	   -0.17679
   1.85017 	    0.88304 	    0.88304
   1.83901 	    0.89434 	    1.93888
   1.84249 	    0.89001 	    2.94272
   1.84084 	    0.89397 	    3.97796
   1.84084 	    0.89397 	    5.02203
   1.84249 	    0.89001 	    6.05727
   1.83900 	    0.89434 	    7.06111
   1.85017 	    0.88304 	    8.11695
   1.87839 	    0.91296 	    9.17679
   1.87629 	    1.95292 	   -0.17689
   1.83901 	    1.93888 	    0.89434
   1.84523 	    1.94290 	    1.94290
   1.84494 	    1.94313 	    2.93256
   1.84692 	    1.94381 	    3.97402
   1.84692 	    1.94381 	    5.02597
   1.84494 	    1.94313 	    6.06743
   1.84523 	    1.94290 	    7.05709
   1.83900 	    1.93888 	    8.10565
   1.87629 	    1.95292 	    9.17688
   1.88285 	    2.96253 	   -0.18217
   1.84249 	    2.94272 	    0.89001
   1.84494 	    2.93255 	    1.94314
   1.84241 	    2.93082 	    2.93083
   1.84431 	    2.93017 	    3.97368
   1.84431 	    2.93017 	    5.02631
   1.84241 	    2.93082 	    6.06916
   1.84494 	    2.93256 	    7.05686
   1.84249 	    2.94272 	    8.10998
   1.88285 	    2.96253 	    9.18216
   1.87829 	    3.98593 	   -0.18160
   1.84084 	    3.97796 	    0.89397
   1.84692 	    3.97402 	    1.94381
   1.84431 	    3.97367 	    2.93018
   1.84609 	    3.97360 	    3.97360
   1.84609 	    3.97360 	    5.02639
   1.84431 	    3.97367 	    6.06982
   1.84692 	    3.97402 	    7.05619
   1.84084 	    3.97796 	    8.10602
   1.87830 	    3.98593 	    9.18159
   1.87829 	    5.01406 	   -0.18160
   1.84084 	    5.02203 	    0.89398
   1.84692 	    5.02596 	    1.94381
   1.84431 	    5.02631 	    2.93018
   1.84609 	    5.02638 	    3.97360
   1.84609 	    5.02638 	    5.02639
   1.84431 	    5.02631 	    6.06982
   1.84692 	    5.02596 	    7.05619
   1.84084 	    5.02203 	    8.10602
   1.87829 	    5.01406 	    9.18159
   1.88285 	    6.03746 	   -0.18217
   1.84249 	    6.05727 	    0.89001
   1.84494 	    6.06743 	    1.94314
   1.84241 	    6.06916 	    2.93083
   1.84431 	    6.06981 	    3.97368
   1.84431 	    6.06981 	    5.02631
   1.84241 	    6.06916 	    6.06916
   1.84494 	    6.06743 	    7.05686
   1.84249 	    6.05727 	    8.10998
   1.88285 	    6.03746 	    9.18216
   1.87629 	    7.04708 	   -0.17689
   1.83900 	    7.06111 	    0.89434
   1.84523 	    7.05709 	    1.94290
   1.84494 	    7.05686 	    2.93256
   1.84692 	    7.05618 	    3.97402
   1.84692 	    7.05618 	    5.02597
   1.84494 	    7.05686 	    6.06743
   1.84523 	    7.05709 	    7.05709
   1.83900 	    7.06111 	    8.10565
   1.87629 	    7.04708 	    9.17688
   1.87839 	    8.08704 	   -0.17679
   1.85017 	    8.11695 	    0.88305
   1.83900 	    8.10565 	    1.93888
   1.84249 	    8.10998 	    2.94272
   1.84084 	    8.10602 	    3.97796
   1.84084 	    8.10602 	    5.02203
   1.84249 	    8.10998 	    6.05727
   1.83900 	    8.10565 	    7.06111
   1.85017 	    8.11695 	    8.11695
   1.87839 	    8.08704 	    9.17678
   1.89051 	    9.16372 	   -0.16372
   1.87839 	    9.17679 	    0.91296
   1.87629 	    9.17688 	    1.95292
   1.88285 	    9.18216 	    2.96254
   1.87830 	    9.18159 	    3.98593
   1.87830 	    9.18159 	    5.01406
   1.88285 	    9.18216 	    6.03746
   1.87629 	    9.17688 	    7.04708
   1.87839 	    9.17678 	    8.08704
   1.89051 	    9.16372 	    9.16372
   2.67830 	   -0.23654 	   -0.23654
   2.71468 	   -0.24871 	    0.82476
   2.72665 	   -0.25734 	    1.88431
   2.72679 	   -0.26599 	    2.92900
   2.72308 	   -0.27105 	    3.97676
   2.72308 	   -0.27105 	    5.02323
   2.72679 	   -0.26599 	    6.07099
   2.72665 	   -0.25734 	    7.11568
   2.71468 	   -0.24870 	    8.17523
   2.67830 	   -0.23653 	    9.23653
   2.71468 	    0.82476 	   -0.24870
   2.79257 	    0.80429 	    0.80429
   2.81793 	    0.79354 	    1.89146
   2.81797 	    0.78635 	    2.93514
   2.81259 	    0.77825 	    3.97950
   2.81259 	    0.77825 	    5.02049
   2.81797 	    0.78636 	    6.06485
   2.81793 	    0.79354 	    7.10853
   2.79258 	    0.80429 	    8.19570
   2.71469 	    0.82477 	    9.24869
   2.72665 	    1.88431 	   -0.25734
   2.81793 	    1.89146 	    0.79354
   2.83090 	    1.89132 	    1.89132
   2.82348 	    1.88917 	    2.93609
   2.81148 	    1.88027 	    3.97952
   2.81148 	    1.88027 	    5.02048
   2.82348 	    1.88917 	    6.06390
   2.83090 	    1.89132 	    7.10867
   2.81793 	    1.89146 	    8.20645
   2.72665 	    1.88431 	    9.25733
   2.72679 	    2.92900 	   -0.26599
   2.81797 	    2.93514 	    0.78636
   2.82348 	    2.93609 	    1.88917
   2.81436 	    2.93310 	    2.93310
   2.80120 	    2.93025 	    3.97798
   2.80120 	    2.93025 	    5.02201
   2.81436 	    2.93310 	    6.06689
   2.82348 	    2.93609 	    7.11082
   2.81797 	    2.93514 	    8.21363
   2.72679 	    2.92900 	    9.26598
   2.72308 	    3.97676 	   -0.27104
   2.81259 	    3.97950 	    0.77826
   2.81148 	    3.97951 	    1.88028
   2.80120 	    3.97798 	    2.93025
   2.78698 	    3.97677 	    3.97677
   2.78698 	    3.97677 	    5.02322
   2.80120 	    3.97798 	    6.06974
   2.81148 	    3.97951 	    7.11971
   2.81260 	    3.97950 	    8.22173
   2.72308 	    3.97676 	    9.27103
   2.72308 	    5.02323 	   -0.27104
   2.81259 	    5.02049 	    0.77826
   2.81148 	    5.02047 	    1.88028
   2.80120 	    5.02200 	    2.93025
   2.78698 	    5.02321 	    3.97678
   2.78698 	    5.02321 	    5.02322
   2.80120 	    5.02200 	    6.06974
   2.81148 	    5.02047 	    7.11971
   2.81260 	    5.02049 	    8.22173
   2.72308 	    5.02323 	    9.27103
   2.72679 	    6.07099 	   -0.26599
   2.81797 	    6.06485 	    0.78636
   2.82348 	    6.06389 	    1.88917
   2.81436 	    6.06688 	    2.93310
   2.80120 	    6.06973 	    3.97798
   2.80120 	    6.06973 	    5.02201
   2.81436 	    6.06688 	    6.06689
   2.82348 	    6.06389 	    7.11082
[...]
POINT_DATA 1000
SCALARS C float
LOOKUP_TABLE default
	      1.3049767
	      0.7393997
	      0.7459065
	      0.7756443
	      0.7363117
	      0.7363085
	      0.7756390
	      0.7459051
	      0.7393926
	      1.3049472
	      0.7393931
	      0.1160968
	      0.1244589
	      0.1673449
	      0.1350331
	      0.1350311
	      0.1673429
	      0.1244629
	      0.1160973
	      0.7393749
	      0.7458980
	      0.1244585
	      0.1366703
	      0.1991171
	      0.1628876
	      0.1628854
	      0.1991143
	      0.1366743
	      0.1244608
	      0.7458763
	      0.7756365
	      0.1673459
	      0.1991189
	      0.2784809
	      0.2396712
	      0.2396686
	      0.2784772
	      0.1991222
	      0.1673481
	      0.7756136
	      0.7363031
	      0.1350338
	      0.1628891
	      0.2396709
	      0.1958247
	      0.1958224
	      0.2396674
	      0.1628926
	      0.1350365
	      0.7362807
	      0.7362992
	      0.1350309
	      0.1628856
	      0.2396669
	      0.1958209
	      0.1958185
	      0.2396633
	      0.1628891
	      0.1350336
	      0.7362768
	      0.7756304
	      0.1673427
	      0.1991147
	      0.2784754
	      0.2396656
	      0.2396631
	      0.2784716
	      0.1991180
	      0.1673449
	      0.7756075
	      0.7458974
	      0.1244639
	      0.1366763
	      0.1991226
	      0.1628928
	      0.1628906
	      0.1991198
	      0.1366803
	      0.1244662
	      0.7458757
	      0.7393845
	      0.1160971
	      0.1244618
	      0.1673479
	      0.1350363
	      0.1350343
	      0.1673459
	      0.1244658
	      0.1160977
	      0.7393664
	      1.3049370
	      0.7393668
	      0.7458687
	      0.7756050
	      0.7362714
	      0.7362682
	      0.7755996
	      0.7458672
	      0.7393597
	      1.3049075
	      0.1019187
	      0.0783943
	      0.0786182
	      0.0861901
	      0.0869761
	      0.0869761
	      0.0861900
	      0.0786181
	      0.0783939
	      0.1019180
	      0.0783945
	      0.0863968
	      0.0879380
	      0.1032204
	      0.1023768
	      0.1023765
	      0.1032206
	      0.0879373
	      0.0863964
	      0.0783935
	      0.0786180
	      0.0879376
	      0.0731613
	      0.0874657
	      0.0840348
	      0.0840341
	      0.0874662
	      0.0731606
	      0.0879373
	      0.0786165
	      0.0861896
	      0.1032198
	      0.0874653
	      0.1030958
	      0.0997042
	      0.0997035
	      0.1030962
	      0.0874644
	      0.1032193
	      0.0861876
	      0.0869758
	      0.1023763
	      0.0840346
	      0.0997044
	      0.0959453
	      0.0959443
	      0.0997047
	      0.0840339
	      0.1023758
	      0.0869739
	      0.0869757
	      0.1023760
	      0.0840338
	      0.0997033
	      0.0959440
	      0.0959430
	      0.0997036
	      0.0840331
	      0.1023755
	      0.0869738
	      0.0861896
	      0.1032201
	      0.0874661
	      0.1030963
	      0.0997045
	      0.0997038
	      0.1030967
	      0.0874652
	      0.1032197
	      0.0861876
	      0.0786176
	      0.0879367
	      0.0731600
	      0.0874643
	      0.0840335
	      0.0840329
	      0.0874648
	      0.0731593
	      0.0879364
	      0.0786162
	      0.0783936
	      0.0863964
	      0.0879367
	      0.1032189
	      0.1023754
	      0.1023751
	      0.1032191
	      0.0879360
	      0.0863959
	      0.0783926
	      0.1019182
	      0.0783932
	      0.0786161
	      0.0861872
	      0.0869735
	      0.0869735
	      0.0861872
	      0.0786159
	      0.0783928
	      0.1019176
	      0.2272826
	      0.1677929
	      0.1526843
	      0.1513806
	      0.1504690
	      0.1504689
	      0.1513803
	      0.1526835
	      0.1677914
	      0.2272804
	      0.1677930
	      0.1367629
	      0.1295913
	      0.1294208
	      0.1286830
	      0.1286827
	      0.1294203
	      0.1295905
	      0.1367615
	      0.1677927
	      0.1526843
	      0.1295909
	      0.1178005
	      0.1118025
	      0.1202528
	      0.1202535
	      0.1118034
	      0.1177978
	      0.1295893
	      0.1526838
	      0.1513805
	      0.1294200
	      0.1118019
	      0.1041019
	      0.1135514
	      0.1135512
	      0.1041027
	      0.1117996
	      0.1294182
	      0.1513798
	      0.1504688
	      0.1286823
	      0.1202523
	      0.1135515
	      0.1246527
	      0.1246534
	      0.1135526
	      0.1202498
	      0.1286804
	      0.1504680
	      0.1504686
	      0.1286819
	      0.1202527
	      0.1135513
	      0.1246533
	      0.1246541
	      0.1135524
	      0.1202502
	      0.1286801
	      0.1504678
	      0.1513799
	      0.1294196
	      0.1118029
	      0.1041032
	      0.1135527
	      0.1135525
	      0.1041040
	      0.1118006
	      0.1294178
	      0.1513791
	      0.1526829
	      0.1295896
	      0.1177963
	      0.1117991
	      0.1202490
	      0.1202496
	      0.1118000
	      0.1177936
	      0.1295881
	      0.1526824
	      0.1677909
	      0.1367616
	      0.1295885
	      0.1294175
	      0.1286797
	      0.1286794
	      0.1294170
	      0.1295876
	      0.1367602
	      0.1677905
	      0.2272802
	      0.1677921
	      0.1526833
	      0.1513794
	      0.1504677
	      0.1504676
	      0.1513790
	      0.1526825
	      0.1677906
	      0.2272781
	      0.2138033
	      0.1704362
	      0.1621501
	      0.1614656
	      0.1615286
	      0.1615284
	      0.1614652
	      0.1621494
	      0.1704350
	      0.2138019
	      0.1704366
	      0.1397599
	      0.1350763
	      0.1320178
	      0.1311344
	      0.1311341
	      0.1320171
	      0.1350755
	      0.1397602
	      0.1704364
	      0.1621505
	      0.1350766
	      0.1722102
	      0.1657786
	      0.1816788
	      0.1816784
	      0.1657790
	      0.1722093
	      0.1350772
	      0.1621497
	      0.1614659
	      0.1320180
	      0.1657780
	      0.1439383
	      0.1593737
	      0.1593723
	      0.1439380
	      0.1657766
	      0.1320179
	      0.1614648
	      0.1615287
	      0.1311344
	      0.1816780
	      0.1593736
	      0.1784526
	      0.1784517
	      0.1593734
	      0.1816767
	      0.1311344
	      0.1615275
	      0.1615284
	      0.1311341
	      0.1816775
	      0.1593719
	      0.1784512
	      0.1784503
	      0.1593717
	      0.1816762
	      0.1311341
	      0.1615272
	      0.1614650
	      0.1320170
	      0.1657783
	      0.1439381
	      0.1593730
	      0.1593716
	      0.1439377
	      0.1657769
	      0.1320169
	      0.1614639
	      0.1621489
	      0.1350753
	      0.1722079
	      0.1657759
	      0.1816759
	      0.1816755
	      0.1657763
	      0.1722070
	      0.1350759
	      0.1621481
	      0.1704344
	      0.1397605
	      0.1350770
	      0.1320178
	      0.1311344
	      0.1311341
	      0.1320172
	      0.1350762
	      0.1397608
	      0.1704341
	      0.2138017
	      0.1704358
	      0.1621492
	      0.1614646
	      0.1615274
	      0.1615273
	      0.1614642
	      0.1621485
	      0.1704346
	      0.2138003
	      0.1703014
	      0.1468452
	      0.1453041
	      0.1480251
	      0.1488057
	      0.1488056
	      0.1480248
	      0.1453036
	      0.1468445
	      0.1703013
	      0.1468458
	      0.1186751
	      0.1191332
	      0.1191522
	      0.1182141
	      0.1182138
	      0.1191515
	      0.1191327
	      0.1186761
	      0.1468467
	      0.1453049
	      0.1191337
	      0.1516923
	      0.1478071
	      0.1621673
	      0.1621688
	      0.1478074
	      0.1516898
	      0.1191355
	      0.1453051
	      0.1480259
	      0.1191529
	      0.1478063
	      0.1252128
	      0.1392645
	      0.1392655
	      0.1252122
	      0.1478029
	      0.1191545
	      0.1480258
	      0.1488063
	      0.1182146
	      0.1621661
	      0.1392644
	      0.1585018
	      0.1585023
	      0.1392642
	      0.1621643
	      0.1182161
	      0.1488061
	      0.1488059
	      0.1182143
	      0.1621678
	      0.1392656
	      0.1585027
	      0.1585032
	      0.1392653
	      0.1621660
	      0.1182157
	      0.1488058
	      0.1480249
	      0.1191520
	      0.1478065
	      0.1252121
	      0.1392643
	      0.1392653
	      0.1252116
	      0.1478030
	      0.1191536
	      0.1480249
	      0.1453035
	      0.1191329
	      0.1516884
	      0.1478019
	      0.1621633
	      0.1621648
	      0.1478022
	      0.1516858
	      0.1191347
	      0.1453038
	      0.1468444
	      0.1186767
	      0.1191358
	      0.1191550
	      0.1182166
	      0.1182163
	      0.1191543
	      0.1191353
	      0.1186776
	      0.1468453
	      0.1703020
	      0.1468466
	      0.1453050
	      0.1480260
	      0.1488065
	      0.1488063
	      0.1480256
	      0.1453046
	      0.1468460
	      0.1703018
	      0.1703432
	      0.1468763
	      0.1453255
	      0.1480467
	      0.1488575
	      0.1488573
	      0.1480464
	      0.1453250
	      0.1468758
	      0.1703431
	      0.1468770
	      0.1187641
	      0.1192326
	      0.1192019
	      0.1182879
	      0.1182876
	      0.1192013
	      0.1192320
	      0.1187648
	      0.1468780
	      0.1453263
	      0.1192332
	      0.1509160
	      0.1472992
	      0.1613714
	      0.1613717
	      0.1472997
	      0.1509148
	      0.1192346
	      0.1453265
	      0.1480475
	      0.1192026
	      0.1472986
	      0.1254619
	      0.1396814
	      0.1396813
	      0.1254614
	      0.1472969
	      0.1192035
	      0.1480473
	      0.1488580
	      0.1182883
	      0.1613705
	      0.1396815
	      0.1595975
	      0.1595973
	      0.1396815
	      0.1613700
	      0.1182891
	      0.1488578
	      0.1488576
	      0.1182879
	      0.1613710
	      0.1396812
	      0.1595972
	      0.1595970
	      0.1396812
	      0.1613705
	      0.1182887
	      0.1488574
	      0.1480465
	      0.1192017
	      0.1472992
	      0.1254613
	      0.1396814
	      0.1396812
	      0.1254608
	      0.1472975
	      0.1192026
	      0.1480464
	      0.1453249
	      0.1192321
	      0.1509136
	      0.1472963
	      0.1613693
	      0.1613696
	      0.1472969
	      0.1509124
	      0.1192335
	      0.1453251
	      0.1468757
	      0.1187652
	      0.1192347
	      0.1192039
	      0.1182895
	      0.1182891
	      0.1192033
	      0.1192340
	      0.1187659
	      0.1468767
	      0.1703440
	      0.1468779
	      0.1453264
	      0.1480475
	      0.1488581
	      0.1488580
	      0.1480471
	      0.1453260
	      0.1468774
	      0.1703439
	      0.2139589
	      0.1705593
	      0.1622826
	      0.1615923
	      0.1616808
	      0.1616807
	      0.1615918
	      0.1622819
	      0.1705583
	      0.2139577
	      0.1705597
	      0.1398840
	      0.1353398
	      0.1323316
	      0.1315023
	      0.1315020
	      0.1323309
	      0.1353390
	      0.1398840
	      0.1705596
	      0.1622831
	      0.1353401
	      0.1705408
	      0.1650400
	      0.1806366
	      0.1806366
	      0.1650404
	      0.1705395
	      0.1353401
	      0.1622820
	      0.1615925
	      0.1323318
	      0.1650393
	      0.1444567
	      0.1595492
	      0.1595481
	      0.1444559
	      0.1650379
	      0.1323310
	      0.1615911
	      0.1616809
	      0.1315020
	      0.1806358
	      0.1595490
	      0.1784394
	      0.1784393
	      0.1595486
	      0.1806341
	      0.1315014
	      0.1616794
	      0.1616806
	      0.1315017
	      0.1806360
	      0.1595479
	      0.1784389
	      0.1784388
	      0.1595474
	      0.1806344
	      0.1315010
	      0.1616791
	      0.1615916
	      0.1323307
	      0.1650396
	      0.1444558
	      0.1595483
	      0.1595472
	      0.1444550
	      0.1650381
	      0.1323299
	      0.1615901
	      0.1622814
	      0.1353385
	      0.1705381
	      0.1650371
	      0.1806335
	      0.1806336
	      0.1650375
	      0.1705368
	      0.1353385
	      0.1622804
	      0.1705577
	      0.1398840
	      0.1353397
	      0.1323308
	      0.1315011
	      0.1315007
	      0.1323302
	      0.1353388
	      0.1398840
	      0.1705576
	      0.2139577
	      0.1705590
	      0.1622815
	      0.1615909
	      0.1616793
	      0.1616791
	      0.1615904
	      0.1622808
	      0.1705580
	      0.2139564
	      0.2276921
	      0.1680732
	      0.1529931
	      0.1516876
	      0.1507531
	      0.1507529
	      0.1516871
	      0.1529924
	      0.1680718
	      0.2276896
	      0.1680733
	      0.1368107
	      0.1296710
	      0.1295343
	      0.1288283
	      0.1288279
	      0.1295336
	      0.1296705
	      0.1368101
	      0.1680718
	      0.1529930
	      0.1296709
	      0.1186282
	      0.1131149
	      0.1206025
	      0.1206039
	      0.1131154
	      0.1186266
	      0.1296719
	      0.1529910
	      0.1516873
	      0.1295340
	      0.1131144
	      0.1059335
	      0.1135957
	      0.1135961
	      0.1059334
	      0.1131130
	      0.1295352
	      0.1516850
	      0.1507527
	      0.1288281
	      0.1206019
	      0.1135955
	      0.1224259
	      0.1224271
	      0.1135956
	      0.1206002
	      0.1288293
	      0.1507504
	      0.1507524
	      0.1288276
	      0.1206035
	      0.1135962
	      0.1224272
	      0.1224285
	      0.1135963
	      0.1206018
	      0.1288288
	      0.1507501
	      0.1516864
	      0.1295333
	      0.1131148
	      0.1059335
	      0.1135956
	      0.1135961
	      0.1059335
	      0.1131134
	      0.1295345
	      0.1516842
	      0.1529916
	      0.1296702
	      0.1186260
	      0.1131125
	      0.1205999
	      0.1206013
	      0.1131130
	      0.1186244
	      0.1296712
	      0.1529896
	      0.1680710
	      0.1368105
	      0.1296716
	      0.1295349
	      0.1288290
	      0.1288286
	      0.1295342
	      0.1296711
	      0.1368099
	      0.1680695
	      0.2276889
	      0.1680710
	      0.1529902
	      0.1516844
	      0.1507498
	      0.1507496
	      0.1516839
	      0.1529895
	      0.1680696
	      0.2276864
	      0.1024057
	      0.0786975
	      0.0789232
	      0.0865176
	      0.0873011
	      0.0873010
	      0.0865174
	      0.0789230
	      0.0786973
	      0.1024050
	      0.0786976
	      0.0862743
	      0.0876240
	      0.1028853
	      0.1020531
	      0.1020527
	      0.1028848
	      0.0876236
	      0.0862736
	      0.0786974
	      0.0789230
	      0.0876235
	      0.0725790
	      0.0867112
	      0.0835383
	      0.0835376
	      0.0867102
	      0.0725787
	      0.0876223
	      0.0789224
	      0.0865174
	      0.1028847
	      0.0867112
	      0.1023685
	      0.0996186
	      0.0996177
	      0.1023675
	      0.0867108
	      0.1028831
	      0.0865162
	      0.0873008
	      0.1020524
	      0.0835383
	      0.0996186
	      0.0968387
	      0.0968378
	      0.0996176
	      0.0835381
	      0.1020507
	      0.0872996
	      0.0873007
	      0.1020520
	      0.0835372
	      0.0996172
	      0.0968374
	      0.0968365
	      0.0996163
	      0.0835370
	      0.1020503
	      0.0872995
	      0.0865171
	      0.1028839
	      0.0867098
	      0.1023670
	      0.0996171
	      0.0996162
	      0.1023659
	      0.0867094
	      0.1028823
	      0.0865160
	      0.0789228
	      0.0876229
	      0.0725782
	      0.0867104
	      0.0835377
	      0.0835369
	      0.0867094
	      0.0725779
	      0.0876217
	      0.0789222
	      0.0786973
	      0.0862733
	      0.0876216
	      0.1028822
	      0.1020500
	      0.1020497
	      0.1028817
	      0.0876212
	      0.0862725
	      0.0786970
	      0.1024054
	      0.0786973
	      0.0789222
	      0.0865160
	      0.0872993
	      0.0872993
	      0.0865157
	      0.0789221
	      0.0786972
	      0.1024047
	      1.3053338
	      0.7395585
	      0.7459629
	      0.7761631
	      0.7366685
	      0.7366664
	      0.7761586
	      0.7459595
	      0.7395507
	      1.3053053
	      0.7395524
	      0.1170619
	      0.1248520
	      0.1677513
	      0.1352411
	      0.1352404
	      0.1677507
	      0.1248544
	      0.1170629
	      0.7395350
	      0.7459548
	      0.1248514
	      0.1364104
	      0.1992034
	      0.1625701
	      0.1625692
	      0.1992023
	      0.1364127
	      0.1248525
	      0.7459344
	      0.7761553
	      0.1677517
	      0.1992046
	      0.2793368
	      0.2400590
	      0.2400577
	      0.2793348
	      0.1992064
	      0.1677526
	      0.7761336
	      0.7366602
	      0.1352415
	      0.1625713
	      0.2400589
	      0.1956425
	      0.1956413
	      0.2400571
	      0.1625736
	      0.1352429
	      0.7366389
	      0.7366575
	      0.1352403
	      0.1625695
	      0.2400566
	      0.1956403
	      0.1956391
	      0.2400548
	      0.1625719
	      0.1352417
	      0.7366362
	      0.7761501
	      0.1677505
	      0.1992026
	      0.2793337
	      0.2400560
	      0.2400546
	      0.2793317
	      0.1992045
	      0.1677515
	      0.7761284
	      0.7459517
	      0.1248548
	      0.1364140
	      0.1992068
	      0.1625740
	      0.1625730
	      0.1992056
	      0.1364162
	      0.1248560
	      0.7459313
	      0.7395429
	      0.1170631
	      0.1248530
	      0.1677525
	      0.1352428
	      0.1352421
	      0.1677518
	      0.1248553
	      0.1170641
	      0.7395255
	      1.3052945
	      0.7395272
	      0.7459267
	      0.7761251
	      0.7366300
	      0.7366279
	      0.7761206
	      0.7459232
	      0.7395194
	      1.3052660
