# vtk DataFile Version 3.0
test_file
ASCII
DATASET POLYDATA
POINTS 1000 float
   0.05000 	   -0.00000 	    0.00000
   0.05000 	   -0.00000 	    1.00000
   0.05000 	    0.00000 	    2.00000
   0.05000 	    0.00000 	    3.00000
   0.05000 	    0.00000 	    4.00000
   0.05000 	    0.00000 	    5.00000
   0.05000 	    0.00000 	    6.00000
   0.05000 	    0.00000 	    7.00000
   0.05000 	   -0.00000 	    8.00000
   0.05000 	    0.00000 	    9.00000
   0.05000 	    1.00000 	    0.00000
   0.05000 	    1.00000 	    1.00000
   0.05000 	    1.00000 	    2.00000
   0.05000 	    1.00000 	    3.00000
   0.05000 	    1.00000 	    4.00000
   0.05000 	    1.00000 	    5.00000
   0.05000 	    1.00000 	    6.00000
   0.05000 	    1.00000 	    7.00000
   0.05000 	    1.00000 	    8.00000
   0.05000 	    1.00000 	    9.00000
   0.05000 	    2.00000 	    0.00000
   0.05000 	    2.00000 	    1.00000
   0.05000 	    2.00000 	    2.00000
   0.05000 	    2.00000 	    3.00000
   0.05000 	    2.00000 	    4.00000
   0.05000 	    2.00000 	    5.00000
   0.05000 	    2.00000 	    6.00000
   0.05000 	    2.00000 	    7.00000
   0.05000 	    2.00000 	    8.00000
   0.05000 	    2.00000 	    9.00000
   0.05000 	    3.00000 	    0.00000
   0.05000 	    3.00000 	    1.00000
   0.05000 	    3.00000 	    2.00000
   0.05000 	    3.00000 	    3.00000
   0.05000 	    3.00000 	    4.00000
   0.05000 	    3.00000 	    5.00000
   0.05000 	    3.00000 	    6.00000
   0.05000 	    3.00000 	    7.00000
   0.05000 	    3.00000 	    8.00000
   0.05000 	    3.00000 	    9.00000
   0.05000 	    4.00000 	    0.00000
   0.05000 	    4.00000 	    1.00000
   0.05000 	    4.00000 	    2.00000
   0.05000 	    4.00000 	    3.00000
   0.05000 	    4.00000 	    4.00000
   0.05000 	    4.00000 	    5.00000
   0.05000 	    4.00000 	    6.00000
   0.05000 	    4.00000 	    7.00000
   0.05000 	    4.00000 	    8.00000
   0.05000 	    4.00000 	    9.00000
   0.05000 	    5.00000 	    0.00000
   0.05000 	    5.00000 	    1.00000
   0.05000 	    5.00000 	    2.00000
   0.05000 	    5.00000 	    3.00000
   0.05000 	    5.00000 	    4.00000
   0.05000 	    5.00000 	    5.00000
   0.05000 	    5.00000 	    6.00000
   0.05000 	    5.00000 	    7.00000
   0.05000 	    5.00000 	    8.00000
   0.05000 	    5.00000 	    9.00000
   0.05000 	    6.00000 	    0.00000
   0.05000 	    6.00000 	    1.00000
   0.05000 	    6.00000 	    2.00000
   0.05000 	    6.00000 	    3.00000
   0.05000 	    6.00000 	    4.00000
   0.05000 	    6.00000 	    5.00000
   0.05000 	    6.00000 	    6.00000
   0.05000 	    6.00000 	    7.00000
   0.05000 	    6.00000 	    8.00000
   0.05000 	    6.00000 	    9.00000
   0.05000 	    7.00000 	    0.00000
   0.05000 	    7.00000 	    1.00000
   0.05000 	    7.00000 	    2.00000
   0.05000 	    7.00000 	    3.00000
   0.05000 	    7.00000 	    4.00000
   0.05000 	    7.00000 	    5.00000
   0.05000 	    7.00000 	    6.00000
   0.05000 	    7.00000 	    7.00000
   0.05000 	    7.00000 	    8.00000
   0.05000 	    7.00000 	    9.00000
   0.05000 	    8.00000 	    0.00000
   0.05000 	    8.00000 	    1.00000
   0.05000 	    8.00000 	    2.00000
   0.05000 	    8.00000 	    3.00000
   0.05000 	    8.00000 	    4.00000
   0.05000 	    8.00000 	    5.00000
   0.05000 	    8.00000 	    6.00000
   0.05000 	    8.00000 	    7.00000
   0.05000 	    8.00000 	    8.00000
   0.05000 	    8.00000 	    9.00000
   0.05000 	    9.00000 	    0.00000
   0.05000 	    9.00000 	    1.00000
   0.05000 	    9.00000 	    2.00000
   0.05000 	    9.00000 	    3.00000
   0.05000 	    9.00000 	    4.00000
   0.05000 	    9.00000 	    5.00000
   0.05000 	    9.00000 	    6.00000
   0.05000 	    9.00000 	    7.00000
   0.05000 	    9.00000 	    8.00000
   0.05000 	    9.00000 	    9.00000
   1.04244 	   -0.00958 	   -0.00958
   1.04246 	   -0.01090 	    0.99365
   1.04276 	   -0.01185 	    1.99677
   1.04312 	   -0.01261 	    2.99792
   1.04305 	   -0.01294 	    3.99920
   1.04305 	   -0.01294 	    5.00080
   1.04312 	   -0.01261 	    6.00208
   1.04276 	   -0.01185 	    7.00323
   1.04246 	   -0.01090 	    8.00635
   1.04244 	   -0.00958 	    9.00958
   1.04246 	    0.99365 	   -0.01090
   1.03883 	    0.99088 	    0.99088
   1.03875 	    0.98944 	    1.99663
   1.03994 	    0.98861 	    2.99781
   1.03994 	    0.98824 	    3.99897
   1.03994 	    0.98824 	    5.00103
   1.03994 	    0.98861 	    6.00219
   1.03875 	    0.98944 	    7.00337
   1.03883 	    0.99088 	    8.00912
   1.04246 	    0.99365 	    9.01090
   1.04276 	    1.99677 	   -0.01185
   1.03875 	    1.99663 	    0.98944
   1.03824 	    1.99636 	    1.99636
   1.03946 	    1.99619 	    2.99765
   1.03933 	    1.99599 	    3.99888
   1.03933 	    1.99599 	    5.00112
   1.03946 	    1.99619 	    6.00235
   1.03824 	    1.99636 	    7.00363
   1.03875 	    1.99663 	    8.01056
   1.04276 	    1.99677 	    9.01185
   1.04312 	    2.99792 	   -0.01261
   1.03994 	    2.99781 	    0.98861
   1.03946 	    2.99765 	    1.99619
   1.04031 	    2.99748 	    2.99748
   1.04001 	    2.99732 	    3.99879
   1.04001 	    2.99732 	    5.00121
   1.04031 	    2.99748 	    6.00252
   1.03946 	    2.99765 	    7.00381
   1.03994 	    2.99781 	    8.01139
   1.04312 	    2.99792 	    9.01261
   1.04305 	    3.99920 	   -0.01294
   1.03994 	    3.99897 	    0.98824
   1.03933 	    3.99888 	    1.99599
   1.04001 	    3.99879 	    2.99732
   1.03964 	    3.99872 	    3.99872
   1.03964 	    3.99872 	    5.00128
   1.04001 	    3.99879 	    6.00268
   1.03933 	    3.99888 	    7.00401
   1.03994 	    3.99897 	    8.01175
   1.04305 	    3.99920 	    9.01294
   1.04305 	    5.00080 	   -0.01294
   1.03994 	    5.00103 	    0.98824
   1.03933 	    5.00112 	    1.99599
   1.04001 	    5.00121 	    2.99732
   1.03964 	    5.00128 	    3.99872
   1.03964 	    5.00128 	    5.00128
   1.04001 	    5.00121 	    6.00268
   1.03933 	    5.00112 	    7.00401
   1.03994 	    5.00103 	    8.01176
   1.04305 	    5.00080 	    9.01294
   1.04312 	    6.00208 	   -0.01261
   1.03994 	    6.00219 	    0.98861
   1.03946 	    6.00235 	    1.99619
   1.04031 	    6.00252 	    2.99748
   1.04001 	    6.00268 	    3.99879
   1.04001 	    6.00268 	    5.00121
   1.04031 	    6.00252 	    6.00252
   1.03946 	    6.00235 	    7.00381
   1.03994 	    6.00219 	    8.01139
   1.04312 	    6.00208 	    9.01261
   1.04276 	    7.00323 	   -0.01185
   1.03875 	    7.00337 	    0.98944
   1.03824 	    7.00363 	    1.99636
   1.03946 	    7.00381 	    2.99765
   1.03933 	    7.00401 	    3.99888
   1.03933 	    7.00401 	    5.00112
   1.03946 	    7.00381 	    6.00235
   1.03824 	    7.00363 	    7.00363
   1.03875 	    7.00337 	    8.01056
   1.04276 	    7.00323 	    9.01185
   1.04246 	    8.00635 	   -0.01090
   1.03883 	    8.00912 	    0.99088
   1.03875 	    8.01056 	    1.99663
   1.03994 	    8.01139 	    2.99781
   1.03994 	    8.01175 	    3.99897
   1.03994 	    8.01175 	    5.00103
   1.03994 	    8.01139 	    6.00219
   1.03875 	    8.01056 	    7.00337
   1.03883 	    8.00912 	    8.00912
   1.04246 	    8.00635 	    9.01090
   1.04244 	    9.00958 	   -0.00958
   1.04246 	    9.01090 	    0.99365
   1.04276 	    9.01185 	    1.99677
   1.04312 	    9.01261 	    2.99792
   1.04305 	    9.01294 	    3.99920
   1.04305 	    9.01294 	    5.00080
   1.04312 	    9.01261 	    6.00208
   1.04276 	    9.01185 	    7.00323
   1.04246 	    9.01090 	    8.00635
   1.04244 	    9.00958 	    9.00958
   2.03645 	   -0.01049 	   -0.01049
   2.03810 	   -0.01127 	    0.99193
   2.03838 	   -0.01246 	    1.99475
   2.03849 	   -0.01352 	    2.99678
   2.03856 	   -0.01405 	    3.99890
   2.03856 	   -0.01405 	    5.00110
   2.03849 	   -0.01352 	    6.00322
   2.03838 	   -0.01246 	    7.00525
   2.03810 	   -0.01127 	    8.00807
   2.03645 	   -0.01049 	    9.01049
   2.03810 	    0.99193 	   -0.01127
   2.04452 	    0.99109 	    0.99109
   2.04571 	    0.99005 	    1.99499
   2.04595 	    0.98904 	    2.99669
   2.04605 	    0.98833 	    3.99875
   2.04605 	    0.98833 	    5.00125
   2.04595 	    0.98904 	    6.00331
   2.04571 	    0.99005 	    7.00501
   2.04452 	    0.99109 	    8.00891
   2.03810 	    0.99193 	    9.01127
   2.03838 	    1.99475 	   -0.01246
   2.04571 	    1.99499 	    0.99005
   2.04709 	    1.99481 	    1.99481
   2.04742 	    1.99437 	    2.99653
   2.04754 	    1.99400 	    3.99865
   2.04754 	    1.99400 	    5.00134
   2.04742 	    1.99437 	    6.00347
   2.04709 	    1.99481 	    7.00519
   2.04571 	    1.99499 	    8.00995
   2.03838 	    1.99475 	    9.01246
   2.03849 	    2.99678 	   -0.01352
   2.04595 	    2.99669 	    0.98904
   2.04741 	    2.99653 	    1.99437
   2.04765 	    2.99624 	    2.99624
   2.04771 	    2.99604 	    3.99854
   2.04771 	    2.99604 	    5.00146
   2.04765 	    2.99624 	    6.00376
   2.04742 	    2.99653 	    7.00563
   2.04595 	    2.99669 	    8.01096
   2.03849 	    2.99678 	    9.01352
   2.03856 	    3.99890 	   -0.01405
   2.04605 	    3.99875 	    0.98833
   2.04754 	    3.99865 	    1.99400
   2.04771 	    3.99854 	    2.99604
   2.04774 	    3.99847 	    3.99847
   2.04774 	    3.99847 	    5.00153
   2.04771 	    3.99854 	    6.00396
   2.04754 	    3.99865 	    7.00600
   2.04605 	    3.99875 	    8.01167
   2.03856 	    3.99890 	    9.01405
   2.03856 	    5.00110 	   -0.01405
   2.04605 	    5.00125 	    0.98833
   2.04754 	    5.00134 	    1.99400
   2.04771 	    5.00146 	    2.99604
   2.04774 	    5.00153 	    3.99847
   2.04774 	    5.00153 	    5.00153
   2.04771 	    5.00146 	    6.00396
   2.04754 	    5.00134 	    7.00600
   2.04605 	    5.00125 	    8.01167
   2.03856 	    5.00110 	    9.01405
   2.03849 	    6.00322 	   -0.01352
   2.04595 	    6.00331 	    0.98904
   2.04742 	    6.00347 	    1.99437
   2.04765 	    6.00376 	    2.99624
   2.04771 	    6.00396 	    3.99854
   2.04771 	    6.00396 	    5.00146
   2.04765 	    6.00376 	    6.00376
   2.04742 	    6.00347 	    7.00563
[...]
POINT_DATA 1000
SCALARS C float
LOOKUP_TABLE default
	      0.5073767
	      0.3216994
	      0.2856647
	      0.2836544
	      0.2842506
	      0.2842501
	      0.2836534
	      0.2856633
	      0.3216964
	      0.5073705
	      0.3216982
	      0.1660672
	      0.1372431
	      0.1341129
	      0.1339913
	      0.1339910
	      0.1341124
	      0.1372425
	      0.1660652
	      0.3216934
	      0.2856628
	      0.1372425
	      0.1119860
	      0.1124131
	      0.1145135
	      0.1145132
	      0.1124129
	      0.1119857
	      0.1372406
	      0.2856575
	      0.2836522
	      0.1341120
	      0.1124129
	      0.1180794
	      0.1233364
	      0.1233361
	      0.1180792
	      0.1124126
	      0.1341099
	      0.2836463
	      0.2842485
	      0.1339904
	      0.1145132
	      0.1233363
	      0.1304481
	      0.1304478
	      0.1233362
	      0.1145129
	      0.1339883
	      0.2842423
	      0.2842479
	      0.1339899
	      0.1145127
	      0.1233359
	      0.1304476
	      0.1304473
	      0.1233357
	      0.1145124
	      0.1339878
	      0.2842417
	      0.2836513
	      0.1341113
	      0.1124123
	      0.1180789
	      0.1233359
	      0.1233356
	      0.1180787
	      0.1124120
	      0.1341093
	      0.2836455
	      0.2856615
	      0.1372415
	      0.1119850
	      0.1124120
	      0.1145124
	      0.1145121
	      0.1124118
	      0.1119846
	      0.1372396
	      0.2856563
	      0.3216949
	      0.1660641
	      0.1372396
	      0.1341089
	      0.1339872
	      0.1339869
	      0.1341084
	      0.1372389
	      0.1660622
	      0.3216901
	      0.5073696
	      0.3216919
	      0.2856557
	      0.2836443
	      0.2842402
	      0.2842396
	      0.2836433
	      0.2856543
	      0.3216889
	      0.5073634
	      0.0416565
	      0.0291771
	      0.0247546
	      0.0244123
	      0.0224692
	      0.0224689
	      0.0244117
	      0.0247541
	      0.0291767
	      0.0416554
	      0.0291773
	      0.0114845
	      0.0147181
	      0.0200217
	      0.0174148
	      0.0174145
	      0.0200215
	      0.0147181
	      0.0114848
	      0.0291761
	      0.0247547
	      0.0147182
	      0.0206598
	      0.0276845
	      0.0250825
	      0.0250823
	      0.0276844
	      0.0206597
	      0.0147184
	      0.0247527
	      0.0244120
	      0.0200216
	      0.0276844
	      0.0339892
	      0.0311300
	      0.0311297
	      0.0339891
	      0.0276844
	      0.0200217
	      0.0244094
	      0.0224688
	      0.0174147
	      0.0250824
	      0.0311299
	      0.0282705
	      0.0282702
	      0.0311298
	      0.0250824
	      0.0174146
	      0.0224660
	      0.0224684
	      0.0174144
	      0.0250821
	      0.0311296
	      0.0282701
	      0.0282699
	      0.0311294
	      0.0250821
	      0.0174144
	      0.0224656
	      0.0244111
	      0.0200213
	      0.0276842
	      0.0339889
	      0.0311296
	      0.0311294
	      0.0339887
	      0.0276842
	      0.0200213
	      0.0244086
	      0.0247535
	      0.0147180
	      0.0206596
	      0.0276842
	      0.0250822
	      0.0250820
	      0.0276841
	      0.0206596
	      0.0147181
	      0.0247515
	      0.0291763
	      0.0114850
	      0.0147183
	      0.0200215
	      0.0174145
	      0.0174143
	      0.0200212
	      0.0147182
	      0.0114853
	      0.0291751
	      0.0416551
	      0.0291756
	      0.0247521
	      0.0244088
	      0.0224655
	      0.0224652
	      0.0244082
	      0.0247515
	      0.0291752
	      0.0416540
	      0.1057930
	      0.0872837
	      0.0838843
	      0.0826738
	      0.0802556
	      0.0802554
	      0.0826734
	      0.0838838
	      0.0872833
	      0.1057919
	      0.0872839
	      0.0714542
	      0.0740287
	      0.0760486
	      0.0734832
	      0.0734830
	      0.0760482
	      0.0740285
	      0.0714539
	      0.0872835
	      0.0838843
	      0.0740286
	      0.0807555
	      0.0854797
	      0.0842981
	      0.0842979
	      0.0854794
	      0.0807554
	      0.0740283
	      0.0838833
	      0.0826737
	      0.0760484
	      0.0854796
	      0.0913442
	      0.0903277
	      0.0903274
	      0.0913439
	      0.0854795
	      0.0760479
	      0.0826722
	      0.0802554
	      0.0734831
	      0.0842980
	      0.0903276
	      0.0892262
	      0.0892259
	      0.0903274
	      0.0842980
	      0.0734825
	      0.0802536
	      0.0802551
	      0.0734827
	      0.0842977
	      0.0903272
	      0.0892257
	      0.0892255
	      0.0903270
	      0.0842976
	      0.0734821
	      0.0802533
	      0.0826730
	      0.0760479
	      0.0854792
	      0.0913437
	      0.0903272
	      0.0903269
	      0.0913435
	      0.0854792
	      0.0760474
	      0.0826715
	      0.0838834
	      0.0740282
	      0.0807552
	      0.0854793
	      0.0842978
	      0.0842975
	      0.0854791
	      0.0807552
	      0.0740279
	      0.0838825
	      0.0872830
	      0.0714540
	      0.0740280
	      0.0760476
	      0.0734822
	      0.0734820
	      0.0760472
	      0.0740278
	      0.0714537
	      0.0872826
	      0.1057919
	      0.0872832
	      0.0838829
	      0.0826718
	      0.0802533
	      0.0802531
	      0.0826713
	      0.0838825
	      0.0872827
	      0.1057908
	      0.0917255
	      0.0782214
	      0.0773312
	      0.0766772
	      0.0751944
	      0.0751942
	      0.0766768
	      0.0773309
	      0.0782209
	      0.0917240
	      0.0782215
	      0.0725154
	      0.0785312
	      0.0806128
	      0.0788332
	      0.0788331
	      0.0806125
	      0.0785311
	      0.0725156
	      0.0782205
	      0.0773312
	      0.0785312
	      0.0875224
	      0.0930254
	      0.0924361
	      0.0924359
	      0.0930252
	      0.0875224
	      0.0785315
	      0.0773297
	      0.0766769
	      0.0806127
	      0.0930254
	      0.1000785
	      0.0998004
	      0.0998001
	      0.1000783
	      0.0930254
	      0.0806128
	      0.0766748
	      0.0751940
	      0.0788332
	      0.0924360
	      0.0998003
	      0.0995370
	      0.0995368
	      0.0998001
	      0.0924360
	      0.0788331
	      0.0751917
	      0.0751938
	      0.0788329
	      0.0924357
	      0.0997999
	      0.0995366
	      0.0995364
	      0.0997997
	      0.0924357
	      0.0788328
	      0.0751914
	      0.0766763
	      0.0806123
	      0.0930250
	      0.1000781
	      0.0997999
	      0.0997996
	      0.1000779
	      0.0930250
	      0.0806124
	      0.0766742
	      0.0773303
	      0.0785309
	      0.0875222
	      0.0930252
	      0.0924358
	      0.0924356
	      0.0930250
	      0.0875223
	      0.0785312
	      0.0773287
	      0.0782204
	      0.0725158
	      0.0785313
	      0.0806126
	      0.0788329
	      0.0788327
	      0.0806123
	      0.0785312
	      0.0725159
	      0.0782194
	      0.0917238
	      0.0782200
	      0.0773291
	      0.0766743
	      0.0751912
	      0.0751911
	      0.0766739
	      0.0773287
	      0.0782195
	      0.0917223
	      0.0823928
	      0.0664632
	      0.0644085
	      0.0649330
	      0.0648933
	      0.0648932
	      0.0649326
	      0.0644080
	      0.0664626
	      0.0823912
	      0.0664633
	      0.0489118
	      0.0509405
	      0.0533436
	      0.0532259
	      0.0532257
	      0.0533434
	      0.0509404
	      0.0489117
	      0.0664622
	      0.0644084
	      0.0509406
	      0.0557718
	      0.0607555
	      0.0615068
	      0.0615066
	      0.0607553
	      0.0557718
	      0.0509406
	      0.0644068
	      0.0649327
	      0.0533435
	      0.0607554
	      0.0673017
	      0.0685643
	      0.0685641
	      0.0673015
	      0.0607554
	      0.0533434
	      0.0649306
	      0.0648929
	      0.0532257
	      0.0615067
	      0.0685642
	      0.0700380
	      0.0700378
	      0.0685640
	      0.0615066
	      0.0532255
	      0.0648907
	      0.0648927
	      0.0532255
	      0.0615064
	      0.0685639
	      0.0700377
	      0.0700375
	      0.0685637
	      0.0615063
	      0.0532253
	      0.0648904
	      0.0649321
	      0.0533432
	      0.0607551
	      0.0673013
	      0.0685638
	      0.0685636
	      0.0673011
	      0.0607551
	      0.0533430
	      0.0649300
	      0.0644075
	      0.0509402
	      0.0557716
	      0.0607552
	      0.0615064
	      0.0615062
	      0.0607550
	      0.0557716
	      0.0509403
	      0.0644059
	      0.0664621
	      0.0489118
	      0.0509404
	      0.0533432
	      0.0532253
	      0.0532251
	      0.0533429
	      0.0509403
	      0.0489118
	      0.0664611
	      0.0823910
	      0.0664617
	      0.0644063
	      0.0649301
	      0.0648902
	      0.0648901
	      0.0649297
	      0.0644058
	      0.0664612
	      0.0823894
	      0.1075291
	      0.0851500
	      0.0835804
	      0.0856043
	      0.0862274
	      0.0862273
	      0.0856039
	      0.0835799
	      0.0851494
	      0.1075275
	      0.0851500
	      0.0657341
	      0.0660469
	      0.0694871
	      0.0702869
	      0.0702868
	      0.0694868
	      0.0660467
	      0.0657339
	      0.0851492
	      0.0835803
	      0.0660469
	      0.0676781
	      0.0732088
	      0.0748367
	      0.0748366
	      0.0732086
	      0.0676779
	      0.0660467
	      0.0835790
	      0.0856041
	      0.0694870
	      0.0732088
	      0.0801685
	      0.0823121
	      0.0823119
	      0.0801683
	      0.0732086
	      0.0694866
	      0.0856023
	      0.0862271
	      0.0702868
	      0.0748366
	      0.0823120
	      0.0846771
	      0.0846769
	      0.0823117
	      0.0748364
	      0.0702864
	      0.0862252
	      0.0862268
	      0.0702865
	      0.0748364
	      0.0823117
	      0.0846768
	      0.0846766
	      0.0823114
	      0.0748362
	      0.0702861
	      0.0862249
	      0.0856034
	      0.0694865
	      0.0732084
	      0.0801680
	      0.0823115
	      0.0823113
	      0.0801678
	      0.0732082
	      0.0694862
	      0.0856017
	      0.0835794
	      0.0660464
	      0.0676777
	      0.0732084
	      0.0748362
	      0.0748360
	      0.0732081
	      0.0676775
	      0.0660463
	      0.0835781
	      0.0851489
	      0.0657339
	      0.0660464
	      0.0694864
	      0.0702861
	      0.0702860
	      0.0694861
	      0.0660462
	      0.0657337
	      0.0851481
	      0.1075273
	      0.0851487
	      0.0835785
	      0.0856018
	      0.0862248
	      0.0862246
	      0.0856014
	      0.0835780
	      0.0851481
	      0.1075258
	      0.1255252
	      0.0982201
	      0.0966583
	      0.0993351
	      0.0999923
	      0.0999922
	      0.0993347
	      0.0966578
	      0.0982195
	      0.1255235
	      0.0982201
	      0.0813838
	      0.0817801
	      0.0857953
	      0.0867056
	      0.0867055
	      0.0857950
	      0.0817798
	      0.0813837
	      0.0982191
	      0.0966582
	      0.0817800
	      0.0830174
	      0.0888728
	      0.0905383
	      0.0905381
	      0.0888725
	      0.0830172
	      0.0817799
	      0.0966569
	      0.0993348
	      0.0857952
	      0.0888727
	      0.0959043
	      0.0979080
	      0.0979078
	      0.0959041
	      0.0888725
	      0.0857950
	      0.0993332
	      0.0999919
	      0.0867055
	      0.0905382
	      0.0979079
	      0.0999928
	      0.0999926
	      0.0979076
	      0.0905380
	      0.0867052
	      0.0999902
	      0.0999917
	      0.0867052
	      0.0905379
	      0.0979076
	      0.0999925
	      0.0999923
	      0.0979073
	      0.0905377
	      0.0867049
	      0.0999899
	      0.0993342
	      0.0857947
	      0.0888723
	      0.0959038
	      0.0979074
	      0.0979073
	      0.0959035
	      0.0888721
	      0.0857945
	      0.0993325
	      0.0966573
	      0.0817796
	      0.0830170
	      0.0888723
	      0.0905378
	      0.0905376
	      0.0888720
	      0.0830168
	      0.0817795
	      0.0966560
	      0.0982190
	      0.0813836
	      0.0817797
	      0.0857947
	      0.0867049
	      0.0867048
	      0.0857944
	      0.0817794
	      0.0813834
	      0.0982180
	      0.1255232
	      0.0982186
	      0.0966563
	      0.0993326
	      0.0999897
	      0.0999895
	      0.0993322
	      0.0966559
	      0.0982180
	      0.1255215
	      0.1140249
	      0.0837100
	      0.0801942
	      0.0827770
	      0.0837313
	      0.0837312
	      0.0827767
	      0.0801938
	      0.0837094
	      0.1140233
	      0.0837100
	      0.0639099
	      0.0624350
	      0.0658487
	      0.0670145
	      0.0670143
	      0.0658485
	      0.0624348
	      0.0639097
	      0.0837088
	      0.0801940
	      0.0624349
	      0.0612530
	      0.0655953
	      0.0673170
	      0.0673169
	      0.0655951
	      0.0612529
	      0.0624348
	      0.0801927
	      0.0827767
	      0.0658486
	      0.0655953
	      0.0707078
	      0.0726679
	      0.0726677
	      0.0707076
	      0.0655951
	      0.0658484
	      0.0827751
	      0.0837309
	      0.0670143
	      0.0673169
	      0.0726678
	      0.0746641
	      0.0746640
	      0.0726676
	      0.0673168
	      0.0670141
	      0.0837292
	      0.0837307
	      0.0670141
	      0.0673167
	      0.0726676
	      0.0746639
	      0.0746637
	      0.0726673
	      0.0673166
	      0.0670139
	      0.0837290
	      0.0827762
	      0.0658482
	      0.0655949
	      0.0707074
	      0.0726674
	      0.0726673
	      0.0707072
	      0.0655948
	      0.0658480
	      0.0827746
	      0.0801933
	      0.0624346
	      0.0612527
	      0.0655950
	      0.0673166
	      0.0673165
	      0.0655947
	      0.0612525
	      0.0624345
	      0.0801920
	      0.0837089
	      0.0639097
	      0.0624346
	      0.0658481
	      0.0670138
	      0.0670137
	      0.0658479
	      0.0624344
	      0.0639095
	      0.0837078
	      0.1140229
	      0.0837084
	      0.0801922
	      0.0827746
	      0.0837288
	      0.0837286
	      0.0827743
	      0.0801918
	      0.0837078
	      0.1140212
	      0.1151315
	      0.0756854
	      0.0705072
	      0.0735579
	      0.0750080
	      0.0750078
	      0.0735575
	      0.0705067
	      0.0756847
	      0.1151294
	      0.0756854
	      0.0376848
	      0.0370291
	      0.0426952
	      0.0440100
	      0.0440099
	      0.0426950
	      0.0370289
	      0.0376846
	      0.0756837
	      0.0705069
	      0.0370291
	      0.0364001
	      0.0420715
	      0.0435849
	      0.0435848
	      0.0420713
	      0.0363999
	      0.0370289
	      0.0705051
	      0.0735575
	      0.0426951
	      0.0420714
	      0.0475829
	      0.0492342
	      0.0492341
	      0.0475827
	      0.0420712
	      0.0426948
	      0.0735555
	      0.0750074
	      0.0440099
	      0.0435848
	      0.0492342
	      0.0509946
	      0.0509945
	      0.0492340
	      0.0435846
	      0.0440096
	      0.0750054
	      0.0750072
	      0.0440097
	      0.0435846
	      0.0492340
	      0.0509944
	      0.0509943
	      0.0492338
	      0.0435844
	      0.0440094
	      0.0750051
	      0.0735569
	      0.0426947
	      0.0420711
	      0.0475825
	      0.0492339
	      0.0492337
	      0.0475823
	      0.0420709
	      0.0426945
	      0.0735550
	      0.0705061
	      0.0370287
	      0.0363997
	      0.0420710
	      0.0435844
	      0.0435843
	      0.0420708
	      0.0363995
	      0.0370285
	      0.0705043
	      0.0756841
	      0.0376845
	      0.0370287
	      0.0426945
	      0.0440093
	      0.0440092
	      0.0426943
	      0.0370285
	      0.0376843
	      0.0756825
	      0.1151287
	      0.0756831
	      0.0705045
	      0.0735549
	      0.0750048
	      0.0750046
	      0.0735545
	      0.0705041
	      0.0756824
	      0.1151266
	      0.4566646
	      0.3096413
	      0.2782486
	      0.2743285
	      0.2750445
	      0.2750442
	      0.2743277
	      0.2782472
	      0.3096387
	      0.4566595
	      0.3096407
	      0.1982975
	      0.1759711
	      0.1727838
	      0.1733140
	      0.1733137
	      0.1727833
	      0.1759702
	      0.1982958
	      0.3096370
	      0.2782476
	      0.1759707
	      0.1557228
	      0.1537079
	      0.1550157
	      0.1550155
	      0.1537075
	      0.1557221
	      0.1759692
	      0.2782439
	      0.2743272
	      0.1727832
	      0.1537077
	      0.1532695
	      0.1555636
	      0.1555634
	      0.1532691
	      0.1537070
	      0.1727816
	      0.2743234
	      0.2750430
	      0.1733133
	      0.1550154
	      0.1555634
	      0.1584176
	      0.1584174
	      0.1555631
	      0.1550147
	      0.1733116
	      0.2750391
	      0.2750426
	      0.1733130
	      0.1550151
	      0.1555631
	      0.1584173
	      0.1584171
	      0.1555627
	      0.1550144
	      0.1733113
	      0.2750387
	      0.2743262
	      0.1727825
	      0.1537069
	      0.1532687
	      0.1555628
	      0.1555626
	      0.1532683
	      0.1537062
	      0.1727808
	      0.2743224
	      0.2782457
	      0.1759693
	      0.1557214
	      0.1537064
	      0.1550143
	      0.1550141
	      0.1537060
	      0.1557207
	      0.1759678
	      0.2782420
	      0.3096372
	      0.1982948
	      0.1759683
	      0.1727808
	      0.1733109
	      0.1733107
	      0.1727803
	      0.1759674
	      0.1982931
	      0.3096335
	      0.4566576
	      0.3096355
	      0.2782424
	      0.2743219
	      0.2750376
	      0.2750372
	      0.2743210
	      0.2782410
	      0.3096329
	      0.4566525
