# vtk DataFile Version 3.0
test_file
ASCII
DATASET POLYDATA
POINTS 1000 float
   0.72500 	   -0.00000 	    0.00000
   0.72500 	   -0.00000 	    1.00000
   0.72500 	    0.00000 	    2.00000
   0.72500 	    0.00000 	    3.00000
   0.72500 	    0.00000 	    4.00000
   0.72500 	    0.00000 	    5.00000
   0.72500 	    0.00000 	    6.00000
   0.72500 	    0.00000 	    7.00000
   0.72500 	   -0.00000 	    8.00000
   0.72500 	    0.00000 	    9.00000
   0.72500 	    1.00000 	    0.00000
   0.72500 	    1.00000 	    1.00000
   0.72500 	    1.00000 	    2.00000
   0.72500 	    1.00000 	    3.00000
   0.72500 	    1.00000 	    4.00000
   0.72500 	    1.00000 	    5.00000
   0.72500 	    1.00000 	    6.00000
   0.72500 	    1.00000 	    7.00000
   0.72500 	    1.00000 	    8.00000
   0.72500 	    1.00000 	    9.00000
   0.72500 	    2.00000 	    0.00000
   0.72500 	    2.00000 	    1.00000
   0.72500 	    2.00000 	    2.00000
   0.72500 	    2.00000 	    3.00000
   0.72500 	    2.00000 	    4.00000
   0.72500 	    2.00000 	    5.00000
   0.72500 	    2.00000 	    6.00000
   0.72500 	    2.00000 	    7.00000
   0.72500 	    2.00000 	    8.00000
   0.72500 	    2.00000 	    9.00000
   0.72500 	    3.00000 	    0.00000
   0.72500 	    3.00000 	    1.00000
   0.72500 	    3.00000 	    2.00000
   0.72500 	    3.00000 	    3.00000
   0.72500 	    3.00000 	    4.00000
   0.72500 	    3.00000 	    5.00000
   0.72500 	    3.00000 	    6.00000
   0.72500 	    3.00000 	    7.00000
   0.72500 	    3.00000 	    8.00000
   0.72500 	    3.00000 	    9.00000
   0.72500 	    4.00000 	    0.00000
   0.72500 	    4.00000 	    1.00000
   0.72500 	    4.00000 	    2.00000
   0.72500 	    4.00000 	    3.00000
   0.72500 	    4.00000 	    4.00000
   0.72500 	    4.00000 	    5.00000
   0.72500 	    4.00000 	    6.00000
   0.72500 	    4.00000 	    7.00000
   0.72500 	    4.00000 	    8.00000
   0.72500 	    4.00000 	    9.00000
   0.72500 	    5.00000 	    0.00000
   0.72500 	    5.00000 	    1.00000
   0.72500 	    5.00000 	    2.00000
   0.72500 	    5.00000 	    3.00000
   0.72500 	    5.00000 	    4.00000
   0.72500 	    5.00000 	    5.00000
   0.72500 	    5.00000 	    6.00000
   0.72500 	    5.00000 	    7.00000
   0.72500 	    5.00000 	    8.00000
   0.72500 	    5.00000 	    9.00000
   0.72500 	    6.00000 	    0.00000
   0.72500 	    6.00000 	    1.00000
   0.72500 	    6.00000 	    2.00000
   0.72500 	    6.00000 	    3.00000
   0.72500 	    6.00000 	    4.00000
   0.72500 	    6.00000 	    5.00000
   0.72500 	    6.00000 	    6.00000
   0.72500 	    6.00000 	    7.00000
   0.72500 	    6.00000 	    8.00000
   0.72500 	    6.00000 	    9.00000
   0.72500 	    7.00000 	    0.00000
   0.72500 	    7.00000 	    1.00000
   0.72500 	    7.00000 	    2.00000
   0.72500 	    7.00000 	    3.00000
   0.72500 	    7.00000 	    4.00000
   0.72500 	    7.00000 	    5.00000
   0.72500 	    7.00000 	    6.00000
   0.72500 	    7.00000 	    7.00000
   0.72500 	    7.00000 	    8.00000
   0.72500 	    7.00000 	    9.00000
   0.72500 	    8.00000 	    0.00000
   0.72500 	    8.00000 	    1.00000
   0.72500 	    8.00000 	    2.00000
   0.72500 	    8.00000 	    3.00000
   0.72500 	    8.00000 	    4.00000
   0.72500 	    8.00000 	    5.00000
   0.72500 	    8.00000 	    6.00000
   0.72500 	    8.00000 	    7.00000
   0.72500 	    8.00000 	    8.00000
   0.72500 	    8.00000 	    9.00000
   0.72500 	    9.00000 	    0.00000
   0.72500 	    9.00000 	    1.00000
   0.72500 	    9.00000 	    2.00000
   0.72500 	    9.00000 	    3.00000
   0.72500 	    9.00000 	    4.00000
   0.72500 	    9.00000 	    5.00000
   0.72500 	    9.00000 	    6.00000
   0.72500 	    9.00000 	    7.00000
   0.72500 	    9.00000 	    8.00000
   0.72500 	    9.00000 	    9.00000
   1.73679 	   -0.13266 	   -0.13266
   1.72636 	   -0.14333 	    0.92837
   1.72394 	   -0.14365 	    1.96161
   1.72931 	   -0.14801 	    2.96929
   1.72572 	   -0.14759 	    3.98840
   1.72572 	   -0.14759 	    5.01159
   1.72931 	   -0.14801 	    6.03071
   1.72394 	   -0.14365 	    7.03838
   1.72636 	   -0.14332 	    8.07162
   1.73679 	   -0.13265 	    9.13265
   1.72636 	    0.92837 	   -0.14333
   1.70597 	    0.90321 	    0.90321
   1.69505 	    0.91272 	    1.95077
   1.69819 	    0.90882 	    2.95261
   1.69659 	    0.91268 	    3.98158
   1.69659 	    0.91268 	    5.01841
   1.69819 	    0.90882 	    6.04738
   1.69505 	    0.91272 	    7.04923
   1.70597 	    0.90321 	    8.09678
   1.72636 	    0.92838 	    9.14332
   1.72394 	    1.96161 	   -0.14365
   1.69505 	    1.95076 	    0.91272
   1.69933 	    1.95422 	    1.95422
   1.69912 	    1.95465 	    2.94402
   1.70112 	    1.95558 	    3.97810
   1.70113 	    1.95558 	    5.02189
   1.69912 	    1.95465 	    6.05597
   1.69933 	    1.95422 	    7.04577
   1.69505 	    1.95076 	    8.08727
   1.72395 	    1.96161 	    9.14365
   1.72931 	    2.96928 	   -0.14800
   1.69819 	    2.95261 	    0.90882
   1.69912 	    2.94402 	    1.95465
   1.69701 	    2.94280 	    2.94280
   1.69897 	    2.94240 	    3.97793
   1.69897 	    2.94240 	    5.02206
   1.69701 	    2.94280 	    6.05719
   1.69912 	    2.94402 	    7.04534
   1.69819 	    2.95261 	    8.09117
   1.72931 	    2.96929 	    9.14800
   1.72572 	    3.98840 	   -0.14759
   1.69659 	    3.98158 	    0.91268
   1.70112 	    3.97810 	    1.95558
   1.69897 	    3.97793 	    2.94240
   1.70085 	    3.97797 	    3.97797
   1.70085 	    3.97797 	    5.02202
   1.69897 	    3.97793 	    6.05759
   1.70112 	    3.97810 	    7.04442
   1.69659 	    3.98158 	    8.08731
   1.72572 	    3.98840 	    9.14758
   1.72572 	    5.01159 	   -0.14759
   1.69659 	    5.01841 	    0.91268
   1.70113 	    5.02189 	    1.95558
   1.69897 	    5.02206 	    2.94240
   1.70085 	    5.02202 	    3.97797
   1.70085 	    5.02202 	    5.02202
   1.69897 	    5.02206 	    6.05759
   1.70112 	    5.02189 	    7.04442
   1.69659 	    5.01841 	    8.08731
   1.72572 	    5.01159 	    9.14758
   1.72931 	    6.03071 	   -0.14800
   1.69819 	    6.04738 	    0.90882
   1.69912 	    6.05597 	    1.95465
   1.69701 	    6.05719 	    2.94280
   1.69897 	    6.05759 	    3.97793
   1.69897 	    6.05759 	    5.02206
   1.69701 	    6.05719 	    6.05719
   1.69912 	    6.05596 	    7.04534
   1.69819 	    6.04737 	    8.09117
   1.72931 	    6.03071 	    9.14800
   1.72394 	    7.03838 	   -0.14365
   1.69505 	    7.04923 	    0.91273
   1.69933 	    7.04577 	    1.95423
   1.69912 	    7.04534 	    2.94403
   1.70112 	    7.04442 	    3.97810
   1.70112 	    7.04442 	    5.02189
   1.69912 	    7.04534 	    6.05597
   1.69933 	    7.04577 	    7.04577
   1.69505 	    7.04923 	    8.08727
   1.72394 	    7.03838 	    9.14364
   1.72636 	    8.07162 	   -0.14332
   1.70597 	    8.09678 	    0.90321
   1.69505 	    8.08727 	    1.95077
   1.69819 	    8.09117 	    2.95262
   1.69659 	    8.08731 	    3.98158
   1.69659 	    8.08731 	    5.01841
   1.69819 	    8.09117 	    6.04738
   1.69505 	    8.08727 	    7.04923
   1.70597 	    8.09678 	    8.09678
   1.72636 	    8.07162 	    9.14332
   1.73679 	    9.13265 	   -0.13265
   1.72636 	    9.14332 	    0.92838
   1.72395 	    9.14364 	    1.96161
   1.72931 	    9.14800 	    2.96929
   1.72572 	    9.14758 	    3.98841
   1.72572 	    9.14758 	    5.01159
   1.72931 	    9.14800 	    6.03071
   1.72395 	    9.14364 	    7.03838
   1.72636 	    9.14332 	    8.07162
   1.73679 	    9.13265 	    9.13265
   2.56330 	   -0.19298 	   -0.19298
   2.59288 	   -0.20285 	    0.85679
   2.60226 	   -0.21016 	    1.90553
   2.60215 	   -0.21744 	    2.94193
   2.59908 	   -0.22163 	    3.98098
   2.59908 	   -0.22163 	    5.01901
   2.60215 	   -0.21744 	    6.05807
   2.60226 	   -0.21016 	    7.09446
   2.59288 	   -0.20285 	    8.14320
   2.56330 	   -0.19298 	    9.19298
   2.59288 	    0.85679 	   -0.20285
   2.65934 	    0.84007 	    0.84007
   2.68008 	    0.83032 	    1.91223
   2.68002 	    0.82399 	    2.94767
   2.67521 	    0.81761 	    3.98342
   2.67521 	    0.81761 	    5.01658
   2.68002 	    0.82399 	    6.05232
   2.68008 	    0.83032 	    7.08777
   2.65934 	    0.84008 	    8.15992
   2.59288 	    0.85680 	    9.20285
   2.60226 	    1.90553 	   -0.21016
   2.68008 	    1.91223 	    0.83032
   2.69064 	    1.91072 	    1.91072
   2.68368 	    1.90731 	    2.94862
   2.67350 	    1.89998 	    3.98167
   2.67350 	    1.89998 	    5.01832
   2.68368 	    1.90731 	    6.05138
   2.69064 	    1.91072 	    7.08927
   2.68009 	    1.91223 	    8.16967
   2.60226 	    1.90553 	    9.21015
   2.60215 	    2.94192 	   -0.21744
   2.68002 	    2.94767 	    0.82399
   2.68368 	    2.94861 	    1.90731
   2.67449 	    2.94660 	    2.94660
   2.66290 	    2.94351 	    3.98053
   2.66290 	    2.94351 	    5.01946
   2.67449 	    2.94660 	    6.05339
   2.68368 	    2.94861 	    7.09268
   2.68003 	    2.94767 	    8.17600
   2.60215 	    2.94193 	    9.21743
   2.59908 	    3.98098 	   -0.22163
   2.67521 	    3.98342 	    0.81762
   2.67350 	    3.98166 	    1.89998
   2.66290 	    3.98053 	    2.94351
   2.65040 	    3.97951 	    3.97952
   2.65040 	    3.97951 	    5.02047
   2.66289 	    3.98053 	    6.05648
   2.67350 	    3.98166 	    7.10001
   2.67521 	    3.98342 	    8.18237
   2.59908 	    3.98098 	    9.22162
   2.59908 	    5.01901 	   -0.22162
   2.67521 	    5.01657 	    0.81762
   2.67350 	    5.01832 	    1.89998
   2.66289 	    5.01946 	    2.94351
   2.65040 	    5.02047 	    3.97952
   2.65040 	    5.02047 	    5.02047
   2.66289 	    5.01946 	    6.05648
   2.67350 	    5.01832 	    7.10001
   2.67521 	    5.01657 	    8.18237
   2.59908 	    5.01901 	    9.22162
   2.60215 	    6.05807 	   -0.21744
   2.68002 	    6.05232 	    0.82399
   2.68368 	    6.05137 	    1.90731
   2.67449 	    6.05339 	    2.94660
   2.66289 	    6.05648 	    3.98053
   2.66289 	    6.05648 	    5.01946
   2.67449 	    6.05339 	    6.05339
   2.68368 	    6.05137 	    7.09268
[...]
POINT_DATA 1000
SCALARS C float
LOOKUP_TABLE default
	      1.1693149
	      0.6653603
	      0.6677357
	      0.6945868
	      0.6601793
	      0.6601763
	      0.6945821
	      0.6677341
	      0.6653529
	      1.1692879
	      0.6653545
	      0.1165475
	      0.1206525
	      0.1572882
	      0.1297157
	      0.1297138
	      0.1572864
	      0.1206561
	      0.1165473
	      0.6653377
	      0.6677280
	      0.1206520
	      0.1271988
	      0.1803064
	      0.1495086
	      0.1495063
	      0.1803037
	      0.1272025
	      0.1206534
	      0.6677080
	      0.6945796
	      0.1572888
	      0.1803078
	      0.2486994
	      0.2164701
	      0.2164677
	      0.2486963
	      0.1803110
	      0.1572900
	      0.6945582
	      0.6601714
	      0.1297161
	      0.1495099
	      0.2164699
	      0.1807571
	      0.1807549
	      0.2164670
	      0.1495132
	      0.1297176
	      0.6601503
	      0.6601677
	      0.1297135
	      0.1495065
	      0.2164661
	      0.1807535
	      0.1807512
	      0.2164632
	      0.1495098
	      0.1297149
	      0.6601466
	      0.6945740
	      0.1572860
	      0.1803041
	      0.2486947
	      0.2164654
	      0.2164630
	      0.2486916
	      0.1803072
	      0.1572872
	      0.6945526
	      0.6677269
	      0.1206568
	      0.1272043
	      0.1803114
	      0.1495135
	      0.1495111
	      0.1803087
	      0.1272080
	      0.1206582
	      0.6677068
	      0.6653453
	      0.1165470
	      0.1206541
	      0.1572897
	      0.1297172
	      0.1297154
	      0.1572878
	      0.1206577
	      0.1165468
	      0.6653285
	      1.1692782
	      0.6653301
	      0.6677008
	      0.6945501
	      0.6601417
	      0.6601387
	      0.6945454
	      0.6676991
	      0.6653226
	      1.1692512
	      0.0912346
	      0.0702276
	      0.0702090
	      0.0768321
	      0.0775977
	      0.0775976
	      0.0768321
	      0.0702089
	      0.0702273
	      0.0912341
	      0.0702278
	      0.0763542
	      0.0773837
	      0.0912985
	      0.0907999
	      0.0907998
	      0.0912987
	      0.0773831
	      0.0763539
	      0.0702270
	      0.0702089
	      0.0773834
	      0.0645624
	      0.0779593
	      0.0757043
	      0.0757043
	      0.0779602
	      0.0645617
	      0.0773832
	      0.0702077
	      0.0768318
	      0.0912979
	      0.0779589
	      0.0928964
	      0.0911033
	      0.0911032
	      0.0928975
	      0.0779582
	      0.0912976
	      0.0768301
	      0.0775974
	      0.0907996
	      0.0757042
	      0.0911036
	      0.0892830
	      0.0892830
	      0.0911047
	      0.0757036
	      0.0907992
	      0.0775957
	      0.0775974
	      0.0907995
	      0.0757041
	      0.0911034
	      0.0892829
	      0.0892829
	      0.0911046
	      0.0757034
	      0.0907991
	      0.0775957
	      0.0768318
	      0.0912983
	      0.0779601
	      0.0928978
	      0.0911049
	      0.0911048
	      0.0928988
	      0.0779594
	      0.0912980
	      0.0768301
	      0.0702086
	      0.0773826
	      0.0645612
	      0.0779581
	      0.0757034
	      0.0757033
	      0.0779591
	      0.0645605
	      0.0773824
	      0.0702074
	      0.0702272
	      0.0763539
	      0.0773827
	      0.0912972
	      0.0907988
	      0.0907987
	      0.0912975
	      0.0773821
	      0.0763536
	      0.0702264
	      0.0912343
	      0.0702268
	      0.0702073
	      0.0768298
	      0.0775955
	      0.0775955
	      0.0768298
	      0.0702072
	      0.0702265
	      0.0912337
	      0.2067388
	      0.1521316
	      0.1383451
	      0.1371754
	      0.1364075
	      0.1364073
	      0.1371749
	      0.1383444
	      0.1521303
	      0.2067366
	      0.1521317
	      0.1222501
	      0.1153679
	      0.1151262
	      0.1145992
	      0.1145991
	      0.1151258
	      0.1153671
	      0.1222490
	      0.1521312
	      0.1383451
	      0.1153676
	      0.1095362
	      0.1033119
	      0.1082905
	      0.1082901
	      0.1033118
	      0.1095347
	      0.1153656
	      0.1383445
	      0.1371752
	      0.1151256
	      0.1033113
	      0.0952738
	      0.1004283
	      0.1004270
	      0.0952730
	      0.1033100
	      0.1151234
	      0.1371744
	      0.1364073
	      0.1145985
	      0.1082900
	      0.1004282
	      0.1069006
	      0.1068992
	      0.1004275
	      0.1082889
	      0.1145959
	      0.1364063
	      0.1364070
	      0.1145983
	      0.1082897
	      0.1004267
	      0.1068985
	      0.1068971
	      0.1004260
	      0.1082887
	      0.1145958
	      0.1364061
	      0.1371746
	      0.1151250
	      0.1033110
	      0.0952728
	      0.1004271
	      0.1004258
	      0.0952720
	      0.1033097
	      0.1151227
	      0.1371737
	      0.1383438
	      0.1153663
	      0.1095337
	      0.1033092
	      0.1082885
	      0.1082881
	      0.1033091
	      0.1095321
	      0.1153643
	      0.1383432
	      0.1521297
	      0.1222487
	      0.1153647
	      0.1151226
	      0.1145951
	      0.1145950
	      0.1151221
	      0.1153640
	      0.1222476
	      0.1521292
	      0.2067363
	      0.1521306
	      0.1383440
	      0.1371740
	      0.1364060
	      0.1364059
	      0.1371736
	      0.1383432
	      0.1521293
	      0.2067341
	      0.1957563
	      0.1553275
	      0.1477082
	      0.1471998
	      0.1473212
	      0.1473210
	      0.1471994
	      0.1477074
	      0.1553263
	      0.1957549
	      0.1553279
	      0.1267025
	      0.1228834
	      0.1207024
	      0.1199440
	      0.1199438
	      0.1207019
	      0.1228828
	      0.1267028
	      0.1553274
	      0.1477085
	      0.1228837
	      0.1502167
	      0.1468064
	      0.1604733
	      0.1604732
	      0.1468067
	      0.1502154
	      0.1228847
	      0.1477076
	      0.1472000
	      0.1207027
	      0.1468056
	      0.1320055
	      0.1456337
	      0.1456335
	      0.1320060
	      0.1468044
	      0.1207038
	      0.1471987
	      0.1473211
	      0.1199442
	      0.1604726
	      0.1456340
	      0.1619387
	      0.1619384
	      0.1456345
	      0.1604715
	      0.1199448
	      0.1473198
	      0.1473208
	      0.1199438
	      0.1604726
	      0.1456336
	      0.1619380
	      0.1619377
	      0.1456341
	      0.1604716
	      0.1199444
	      0.1473195
	      0.1471990
	      0.1207017
	      0.1468060
	      0.1320059
	      0.1456346
	      0.1456344
	      0.1320064
	      0.1468049
	      0.1207028
	      0.1471978
	      0.1477069
	      0.1228828
	      0.1502147
	      0.1468038
	      0.1604710
	      0.1604708
	      0.1468041
	      0.1502134
	      0.1228838
	      0.1477060
	      0.1553257
	      0.1267032
	      0.1228847
	      0.1207036
	      0.1199448
	      0.1199445
	      0.1207031
	      0.1228841
	      0.1267035
	      0.1553253
	      0.1957547
	      0.1553268
	      0.1477071
	      0.1471984
	      0.1473196
	      0.1473195
	      0.1471980
	      0.1477063
	      0.1553257
	      0.1957533
	      0.1575148
	      0.1344224
	      0.1326695
	      0.1350714
	      0.1357758
	      0.1357758
	      0.1350711
	      0.1326689
	      0.1344218
	      0.1575146
	      0.1344230
	      0.1083754
	      0.1087469
	      0.1091701
	      0.1085443
	      0.1085443
	      0.1091698
	      0.1087464
	      0.1083762
	      0.1344238
	      0.1326702
	      0.1087475
	      0.1304068
	      0.1301283
	      0.1401899
	      0.1401896
	      0.1301285
	      0.1304049
	      0.1087485
	      0.1326703
	      0.1350720
	      0.1091708
	      0.1301271
	      0.1166646
	      0.1267390
	      0.1267392
	      0.1166650
	      0.1301248
	      0.1091712
	      0.1350719
	      0.1357763
	      0.1085447
	      0.1401890
	      0.1267393
	      0.1405361
	      0.1405365
	      0.1267395
	      0.1401866
	      0.1085455
	      0.1357761
	      0.1357761
	      0.1085446
	      0.1401888
	      0.1267392
	      0.1405363
	      0.1405366
	      0.1267394
	      0.1401864
	      0.1085454
	      0.1357759
	      0.1350712
	      0.1091700
	      0.1301280
	      0.1166648
	      0.1267395
	      0.1267397
	      0.1166651
	      0.1301257
	      0.1091705
	      0.1350710
	      0.1326688
	      0.1087464
	      0.1304035
	      0.1301243
	      0.1401859
	      0.1401856
	      0.1301245
	      0.1304015
	      0.1087473
	      0.1326690
	      0.1344217
	      0.1083766
	      0.1087485
	      0.1091714
	      0.1085458
	      0.1085457
	      0.1091712
	      0.1087479
	      0.1083774
	      0.1344224
	      0.1575152
	      0.1344236
	      0.1326702
	      0.1350719
	      0.1357764
	      0.1357763
	      0.1350716
	      0.1326696
	      0.1344230
	      0.1575150
	      0.1574998
	      0.1344225
	      0.1326958
	      0.1351295
	      0.1358308
	      0.1358307
	      0.1351292
	      0.1326953
	      0.1344220
	      0.1574996
	      0.1344231
	      0.1083124
	      0.1087255
	      0.1093501
	      0.1088585
	      0.1088583
	      0.1093499
	      0.1087251
	      0.1083130
	      0.1344240
	      0.1326965
	      0.1087260
	      0.1305997
	      0.1306742
	      0.1396433
	      0.1396434
	      0.1306741
	      0.1305984
	      0.1087266
	      0.1326967
	      0.1351302
	      0.1093508
	      0.1306731
	      0.1171015
	      0.1255277
	      0.1255283
	      0.1171014
	      0.1306716
	      0.1093510
	      0.1351301
	      0.1358312
	      0.1088589
	      0.1396423
	      0.1255278
	      0.1372737
	      0.1372741
	      0.1255274
	      0.1396409
	      0.1088591
	      0.1358312
	      0.1358310
	      0.1088585
	      0.1396427
	      0.1255283
	      0.1372741
	      0.1372745
	      0.1255279
	      0.1396412
	      0.1088588
	      0.1358309
	      0.1351293
	      0.1093500
	      0.1306736
	      0.1171010
	      0.1255273
	      0.1255279
	      0.1171009
	      0.1306720
	      0.1093503
	      0.1351293
	      0.1326952
	      0.1087250
	      0.1305974
	      0.1306710
	      0.1396402
	      0.1396403
	      0.1306709
	      0.1305961
	      0.1087256
	      0.1326954
	      0.1344219
	      0.1083132
	      0.1087266
	      0.1093512
	      0.1088593
	      0.1088592
	      0.1093509
	      0.1087262
	      0.1083138
	      0.1344228
	      0.1575003
	      0.1344239
	      0.1326966
	      0.1351303
	      0.1358315
	      0.1358314
	      0.1351299
	      0.1326962
	      0.1344234
	      0.1575002
	      0.1958326
	      0.1553895
	      0.1478007
	      0.1473281
	      0.1474387
	      0.1474385
	      0.1473276
	      0.1478000
	      0.1553886
	      0.1958312
	      0.1553899
	      0.1266884
	      0.1227519
	      0.1207058
	      0.1200372
	      0.1200369
	      0.1207053
	      0.1227513
	      0.1266883
	      0.1553896
	      0.1478010
	      0.1227522
	      0.1507092
	      0.1472441
	      0.1603906
	      0.1603904
	      0.1472438
	      0.1507084
	      0.1227529
	      0.1478000
	      0.1473283
	      0.1207060
	      0.1472433
	      0.1324140
	      0.1455345
	      0.1455344
	      0.1324135
	      0.1472425
	      0.1207068
	      0.1473269
	      0.1474387
	      0.1200373
	      0.1603900
	      0.1455347
	      0.1611502
	      0.1611495
	      0.1455340
	      0.1603899
	      0.1200373
	      0.1474373
	      0.1474384
	      0.1200369
	      0.1603900
	      0.1455343
	      0.1611492
	      0.1611485
	      0.1455337
	      0.1603899
	      0.1200369
	      0.1474369
	      0.1473272
	      0.1207050
	      0.1472433
	      0.1324131
	      0.1455339
	      0.1455338
	      0.1324127
	      0.1472425
	      0.1207058
	      0.1473259
	      0.1477995
	      0.1227512
	      0.1507079
	      0.1472420
	      0.1603895
	      0.1603893
	      0.1472417
	      0.1507072
	      0.1227518
	      0.1477985
	      0.1553880
	      0.1266885
	      0.1227527
	      0.1207066
	      0.1200373
	      0.1200370
	      0.1207061
	      0.1227521
	      0.1266884
	      0.1553877
	      0.1958311
	      0.1553890
	      0.1477995
	      0.1473266
	      0.1474371
	      0.1474369
	      0.1473260
	      0.1477988
	      0.1553881
	      0.1958298
	      0.2071439
	      0.1524023
	      0.1386337
	      0.1374958
	      0.1367210
	      0.1367208
	      0.1374953
	      0.1386329
	      0.1524010
	      0.2071414
	      0.1524024
	      0.1224035
	      0.1154264
	      0.1150871
	      0.1143725
	      0.1143725
	      0.1150865
	      0.1154257
	      0.1224030
	      0.1524009
	      0.1386336
	      0.1154264
	      0.1083956
	      0.1021928
	      0.1081611
	      0.1081608
	      0.1021928
	      0.1083951
	      0.1154256
	      0.1386317
	      0.1374955
	      0.1150867
	      0.1021924
	      0.0951881
	      0.1022980
	      0.1022973
	      0.0951877
	      0.1021918
	      0.1150857
	      0.1374933
	      0.1367205
	      0.1143719
	      0.1081609
	      0.1022981
	      0.1110891
	      0.1110882
	      0.1022979
	      0.1081609
	      0.1143706
	      0.1367183
	      0.1367203
	      0.1143719
	      0.1081606
	      0.1022971
	      0.1110877
	      0.1110868
	      0.1022970
	      0.1081607
	      0.1143706
	      0.1367180
	      0.1374946
	      0.1150858
	      0.1021924
	      0.0951875
	      0.1022977
	      0.1022970
	      0.0951870
	      0.1021919
	      0.1150848
	      0.1374925
	      0.1386322
	      0.1154251
	      0.1083943
	      0.1021914
	      0.1081607
	      0.1081604
	      0.1021914
	      0.1083938
	      0.1154243
	      0.1386303
	      0.1524002
	      0.1224030
	      0.1154250
	      0.1150850
	      0.1143700
	      0.1143700
	      0.1150844
	      0.1154243
	      0.1224025
	      0.1523987
	      0.2071407
	      0.1524001
	      0.1386309
	      0.1374927
	      0.1367177
	      0.1367175
	      0.1374921
	      0.1386301
	      0.1523988
	      0.2071382
	      0.0917781
	      0.0705596
	      0.0705464
	      0.0772118
	      0.0779731
	      0.0779730
	      0.0772116
	      0.0705463
	      0.0705595
	      0.0917775
	      0.0705597
	      0.0763277
	      0.0774314
	      0.0914981
	      0.0909280
	      0.0909278
	      0.0914977
	      0.0774311
	      0.0763272
	      0.0705595
	      0.0705463
	      0.0774310
	      0.0648826
	      0.0782484
	      0.0755062
	      0.0755060
	      0.0782479
	      0.0648823
	      0.0774303
	      0.0705459
	      0.0772116
	      0.0914976
	      0.0782484
	      0.0925523
	      0.0896242
	      0.0896239
	      0.0925517
	      0.0782481
	      0.0914967
	      0.0772107
	      0.0779729
	      0.0909276
	      0.0755061
	      0.0896241
	      0.0862432
	      0.0862429
	      0.0896235
	      0.0755058
	      0.0909267
	      0.0779720
	      0.0779729
	      0.0909273
	      0.0755058
	      0.0896237
	      0.0862427
	      0.0862425
	      0.0896231
	      0.0755055
	      0.0909264
	      0.0779720
	      0.0772114
	      0.0914971
	      0.0782477
	      0.0925514
	      0.0896233
	      0.0896230
	      0.0925508
	      0.0782473
	      0.0914962
	      0.0772106
	      0.0705461
	      0.0774306
	      0.0648821
	      0.0782478
	      0.0755056
	      0.0755054
	      0.0782473
	      0.0648818
	      0.0774299
	      0.0705457
	      0.0705595
	      0.0763271
	      0.0774298
	      0.0914961
	      0.0909262
	      0.0909260
	      0.0914957
	      0.0774295
	      0.0763266
	      0.0705593
	      0.0917779
	      0.0705595
	      0.0705457
	      0.0772106
	      0.0779719
	      0.0779719
	      0.0772104
	      0.0705456
	      0.0705594
	      0.0917773
	      1.1689630
	      0.6646973
	      0.6669343
	      0.6941835
	      0.6595329
	      0.6595309
	      0.6941794
	      0.6669308
	      0.6646894
	      1.1689364
	      0.6646918
	      0.1174602
	      0.1213284
	      0.1581249
	      0.1306194
	      0.1306187
	      0.1581243
	      0.1213305
	      0.1174607
	      0.6646754
	      0.6669269
	      0.1213278
	      0.1275281
	      0.1807252
	      0.1500312
	      0.1500300
	      0.1807239
	      0.1275303
	      0.1213286
	      0.6669078
	      0.6941763
	      0.1581251
	      0.1807262
	      0.2490852
	      0.2167685
	      0.2167672
	      0.2490835
	      0.1807280
	      0.1581255
	      0.6941560
	      0.6595252
	      0.1306196
	      0.1500322
	      0.2167684
	      0.1806609
	      0.1806598
	      0.2167669
	      0.1500344
	      0.1306204
	      0.6595055
	      0.6595226
	      0.1306184
	      0.1500303
	      0.2167661
	      0.1806588
	      0.1806576
	      0.2167646
	      0.1500324
	      0.1306191
	      0.6595029
	      0.6941714
	      0.1581240
	      0.1807242
	      0.2490824
	      0.2167658
	      0.2167645
	      0.2490807
	      0.1807260
	      0.1581244
	      0.6941512
	      0.6669235
	      0.1213308
	      0.1275315
	      0.1807283
	      0.1500346
	      0.1500334
	      0.1807270
	      0.1275337
	      0.1213316
	      0.6669045
	      0.6646820
	      0.1174607
	      0.1213289
	      0.1581252
	      0.1306201
	      0.1306193
	      0.1581246
	      0.1213310
	      0.1174612
	      0.6646656
	      1.1689261
	      0.6646680
	      0.6669005
	      0.6941480
	      0.6594972
	      0.6594952
	      0.6941439
	      0.6668970
	      0.6646600
	      1.1688995
