# vtk DataFile Version 3.0
test_file
ASCII
DATASET POLYDATA
POINTS 1000 float
   0.17500 	   -0.00000 	    0.00000
   0.17500 	   -0.00000 	    1.00000
   0.17500 	    0.00000 	    2.00000
   0.17500 	    0.00000 	    3.00000
   0.17500 	    0.00000 	    4.00000
   0.17500 	    0.00000 	    5.00000
   0.17500 	    0.00000 	    6.00000
   0.17500 	    0.00000 	    7.00000
   0.17500 	   -0.00000 	    8.00000
   0.17500 	    0.00000 	    9.00000
   0.17500 	    1.00000 	    0.00000
   0.17500 	    1.00000 	    1.00000
   0.17500 	    1.00000 	    2.00000
   0.17500 	    1.00000 	    3.00000
   0.17500 	    1.00000 	    4.00000
   0.17500 	    1.00000 	    5.00000
   0.17500 	    1.00000 	    6.00000
   0.17500 	    1.00000 	    7.00000
   0.17500 	    1.00000 	    8.00000
   0.17500 	    1.00000 	    9.00000
   0.17500 	    2.00000 	    0.00000
   0.17500 	    2.00000 	    1.00000
   0.17500 	    2.00000 	    2.00000
   0.17500 	    2.00000 	    3.00000
   0.17500 	    2.00000 	    4.00000
   0.17500 	    2.00000 	    5.00000
   0.17500 	    2.00000 	    6.00000
   0.17500 	    2.00000 	    7.00000
   0.17500 	    2.00000 	    8.00000
   0.17500 	    2.00000 	    9.00000
   0.17500 	    3.00000 	    0.00000
   0.17500 	    3.00000 	    1.00000
   0.17500 	    3.00000 	    2.00000
   0.17500 	    3.00000 	    3.00000
   0.17500 	    3.00000 	    4.00000
   0.17500 	    3.00000 	    5.00000
   0.17500 	    3.00000 	    6.00000
   0.17500 	    3.00000 	    7.00000
   0.17500 	    3.00000 	    8.00000
   0.17500 	    3.00000 	    9.00000
   0.17500 	    4.00000 	    0.00000
   0.17500 	    4.00000 	    1.00000
   0.17500 	    4.00000 	    2.00000
   0.17500 	    4.00000 	    3.00000
   0.17500 	    4.00000 	    4.00000
   0.17500 	    4.00000 	    5.00000
   0.17500 	    4.00000 	    6.00000
   0.17500 	    4.00000 	    7.00000
   0.17500 	    4.00000 	    8.00000
   0.17500 	    4.00000 	    9.00000
   0.17500 	    5.00000 	    0.00000
   0.17500 	    5.00000 	    1.00000
   0.17500 	    5.00000 	    2.00000
   0.17500 	    5.00000 	    3.00000
   0.17500 	    5.00000 	    4.00000
   0.17500 	    5.00000 	    5.00000
   0.17500 	    5.00000 	    6.00000
   0.17500 	    5.00000 	    7.00000
   0.17500 	    5.00000 	    8.00000
   0.17500 	    5.00000 	    9.00000
   0.17500 	    6.00000 	    0.00000
   0.17500 	    6.00000 	    1.00000
   0.17500 	    6.00000 	    2.00000
   0.17500 	    6.00000 	    3.00000
   0.17500 	    6.00000 	    4.00000
   0.17500 	    6.00000 	    5.00000
   0.17500 	    6.00000 	    6.00000
   0.17500 	    6.00000 	    7.00000
   0.17500 	    6.00000 	    8.00000
   0.17500 	    6.00000 	    9.00000
   0.17500 	    7.00000 	    0.00000
   0.17500 	    7.00000 	    1.00000
   0.17500 	    7.00000 	    2.00000
   0.17500 	    7.00000 	    3.00000
   0.17500 	    7.00000 	    4.00000
   0.17500 	    7.00000 	    5.00000
   0.17500 	    7.00000 	    6.00000
   0.17500 	    7.00000 	    7.00000
   0.17500 	    7.00000 	    8.00000
   0.17500 	    7.00000 	    9.00000
   0.17500 	    8.00000 	    0.00000
   0.17500 	    8.00000 	    1.00000
   0.17500 	    8.00000 	    2.00000
   0.17500 	    8.00000 	    3.00000
   0.17500 	    8.00000 	    4.00000
   0.17500 	    8.00000 	    5.00000
   0.17500 	    8.00000 	    6.00000
   0.17500 	    8.00000 	    7.00000
   0.17500 	    8.00000 	    8.00000
   0.17500 	    8.00000 	    9.00000
   0.17500 	    9.00000 	    0.00000
   0.17500 	    9.00000 	    1.00000
   0.17500 	    9.00000 	    2.00000
   0.17500 	    9.00000 	    3.00000
   0.17500 	    9.00000 	    4.00000
   0.17500 	    9.00000 	    5.00000
   0.17500 	    9.00000 	    6.00000
   0.17500 	    9.00000 	    7.00000
   0.17500 	    9.00000 	    8.00000
   0.17500 	    9.00000 	    9.00000
   1.16860 	   -0.03056 	   -0.03056
   1.16766 	   -0.03310 	    0.98138
   1.16653 	   -0.03398 	    1.99061
   1.16694 	   -0.03527 	    2.99260
   1.16664 	   -0.03547 	    3.99702
   1.16664 	   -0.03547 	    5.00298
   1.16694 	   -0.03527 	    6.00740
   1.16653 	   -0.03398 	    7.00939
   1.16766 	   -0.03310 	    8.01862
   1.16860 	   -0.03056 	    9.03056
   1.16766 	    0.98138 	   -0.03310
   1.16973 	    0.97484 	    0.97484
   1.16666 	    0.97479 	    1.99089
   1.16678 	    0.97398 	    2.98835
   1.16736 	    0.97411 	    3.99445
   1.16736 	    0.97411 	    5.00555
   1.16678 	    0.97398 	    6.01165
   1.16666 	    0.97479 	    7.00911
   1.16973 	    0.97484 	    8.02516
   1.16766 	    0.98138 	    9.03310
   1.16653 	    1.99061 	   -0.03398
   1.16666 	    1.99089 	    0.97479
   1.16479 	    1.99165 	    1.99165
   1.16439 	    1.99182 	    2.98584
   1.16545 	    1.99128 	    3.99341
   1.16545 	    1.99128 	    5.00658
   1.16439 	    1.99182 	    6.01416
   1.16479 	    1.99165 	    7.00835
   1.16666 	    1.99089 	    8.02521
   1.16653 	    1.99061 	    9.03397
   1.16694 	    2.99260 	   -0.03527
   1.16678 	    2.98835 	    0.97398
   1.16439 	    2.98584 	    1.99182
   1.16363 	    2.98518 	    2.98518
   1.16461 	    2.98442 	    3.99327
   1.16461 	    2.98442 	    5.00673
   1.16363 	    2.98518 	    6.01482
   1.16439 	    2.98584 	    7.00818
   1.16678 	    2.98835 	    8.02602
   1.16694 	    2.99260 	    9.03527
   1.16664 	    3.99702 	   -0.03547
   1.16736 	    3.99445 	    0.97411
   1.16545 	    3.99341 	    1.99128
   1.16461 	    3.99327 	    2.98442
   1.16553 	    3.99300 	    3.99300
   1.16553 	    3.99300 	    5.00699
   1.16461 	    3.99327 	    6.01558
   1.16545 	    3.99341 	    7.00872
   1.16736 	    3.99445 	    8.02589
   1.16664 	    3.99702 	    9.03546
   1.16664 	    5.00298 	   -0.03547
   1.16736 	    5.00555 	    0.97411
   1.16545 	    5.00658 	    1.99128
   1.16461 	    5.00673 	    2.98442
   1.16553 	    5.00699 	    3.99300
   1.16553 	    5.00699 	    5.00699
   1.16461 	    5.00673 	    6.01558
   1.16545 	    5.00658 	    7.00872
   1.16736 	    5.00555 	    8.02589
   1.16664 	    5.00298 	    9.03546
   1.16694 	    6.00740 	   -0.03527
   1.16678 	    6.01165 	    0.97398
   1.16439 	    6.01416 	    1.99182
   1.16363 	    6.01482 	    2.98518
   1.16461 	    6.01558 	    3.99327
   1.16461 	    6.01558 	    5.00673
   1.16363 	    6.01482 	    6.01482
   1.16439 	    6.01416 	    7.00818
   1.16678 	    6.01165 	    8.02602
   1.16694 	    6.00740 	    9.03527
   1.16653 	    7.00939 	   -0.03398
   1.16666 	    7.00911 	    0.97479
   1.16479 	    7.00835 	    1.99165
   1.16439 	    7.00818 	    2.98584
   1.16545 	    7.00872 	    3.99341
   1.16545 	    7.00872 	    5.00658
   1.16439 	    7.00818 	    6.01416
   1.16479 	    7.00835 	    7.00835
   1.16666 	    7.00911 	    8.02521
   1.16653 	    7.00939 	    9.03397
   1.16766 	    8.01862 	   -0.03310
   1.16973 	    8.02516 	    0.97484
   1.16666 	    8.02521 	    1.99089
   1.16678 	    8.02602 	    2.98835
   1.16736 	    8.02589 	    3.99445
   1.16736 	    8.02589 	    5.00555
   1.16678 	    8.02601 	    6.01165
   1.16666 	    8.02521 	    7.00911
   1.16973 	    8.02516 	    8.02516
   1.16766 	    8.01862 	    9.03310
   1.16860 	    9.03056 	   -0.03056
   1.16766 	    9.03310 	    0.98138
   1.16653 	    9.03397 	    1.99061
   1.16694 	    9.03527 	    2.99260
   1.16664 	    9.03546 	    3.99702
   1.16664 	    9.03546 	    5.00298
   1.16694 	    9.03527 	    6.00740
   1.16653 	    9.03397 	    7.00939
   1.16766 	    9.03310 	    8.01861
   1.16860 	    9.03055 	    9.03055
   2.13439 	   -0.04286 	   -0.04286
   2.14116 	   -0.04539 	    0.96694
   2.14290 	   -0.04817 	    1.97824
   2.14248 	   -0.05046 	    2.98666
   2.14193 	   -0.05158 	    3.99560
   2.14193 	   -0.05158 	    5.00439
   2.14248 	   -0.05046 	    6.01334
   2.14290 	   -0.04817 	    7.02175
   2.14116 	   -0.04539 	    8.03306
   2.13439 	   -0.04285 	    9.04285
   2.14116 	    0.96694 	   -0.04539
   2.16090 	    0.96338 	    0.96338
   2.16754 	    0.95787 	    1.98140
   2.16532 	    0.95594 	    2.98814
   2.16464 	    0.95460 	    3.99624
   2.16464 	    0.95460 	    5.00376
   2.16532 	    0.95594 	    6.01186
   2.16754 	    0.95787 	    7.01860
   2.16090 	    0.96338 	    8.03661
   2.14116 	    0.96694 	    9.04539
   2.14290 	    1.97824 	   -0.04817
   2.16754 	    1.98140 	    0.95788
   2.17124 	    1.97972 	    1.97972
   2.16567 	    1.97699 	    2.99008
   2.16514 	    1.97614 	    3.99705
   2.16514 	    1.97614 	    5.00295
   2.16567 	    1.97699 	    6.00992
   2.17123 	    1.97972 	    7.02027
   2.16754 	    1.98140 	    8.04212
   2.14290 	    1.97824 	    9.04817
   2.14248 	    2.98666 	   -0.05046
   2.16532 	    2.98814 	    0.95594
   2.16567 	    2.99008 	    1.97699
   2.15865 	    2.98897 	    2.98897
   2.15814 	    2.98876 	    3.99677
   2.15814 	    2.98876 	    5.00323
   2.15865 	    2.98897 	    6.01103
   2.16567 	    2.99008 	    7.02301
   2.16532 	    2.98814 	    8.04406
   2.14248 	    2.98666 	    9.05046
   2.14193 	    3.99560 	   -0.05158
   2.16464 	    3.99624 	    0.95460
   2.16514 	    3.99705 	    1.97614
   2.15814 	    3.99677 	    2.98876
   2.15787 	    3.99674 	    3.99674
   2.15787 	    3.99674 	    5.00326
   2.15814 	    3.99677 	    6.01124
   2.16514 	    3.99705 	    7.02386
   2.16464 	    3.99624 	    8.04540
   2.14193 	    3.99560 	    9.05157
   2.14193 	    5.00439 	   -0.05158
   2.16464 	    5.00376 	    0.95460
   2.16514 	    5.00295 	    1.97614
   2.15814 	    5.00323 	    2.98876
   2.15787 	    5.00326 	    3.99674
   2.15787 	    5.00326 	    5.00326
   2.15814 	    5.00323 	    6.01124
   2.16514 	    5.00295 	    7.02386
   2.16464 	    5.00376 	    8.04540
   2.14193 	    5.00439 	    9.05157
   2.14248 	    6.01334 	   -0.05046
   2.16532 	    6.01185 	    0.95594
   2.16567 	    6.00992 	    1.97699
   2.15865 	    6.01103 	    2.98897
   2.15814 	    6.01124 	    3.99677
   2.15814 	    6.01124 	    5.00323
   2.15865 	    6.01103 	    6.01103
   2.16567 	    6.00992 	    7.02301
[...]
POINT_DATA 1000
SCALARS C float
LOOKUP_TABLE default
	      0.7021684
	      0.4050919
	      0.3781669
	      0.3938910
	      0.3854000
	      0.3853975
	      0.3938880
	      0.3781653
	      0.4050851
	      0.7021477
	      0.4050884
	      0.1311535
	      0.1101457
	      0.1242388
	      0.1155326
	      0.1155306
	      0.1242376
	      0.1101476
	      0.1311518
	      0.4050747
	      0.3781616
	      0.1101448
	      0.0942152
	      0.1145008
	      0.1059899
	      0.1059873
	      0.1144995
	      0.0942178
	      0.1101440
	      0.3781474
	      0.3938856
	      0.1242383
	      0.1145016
	      0.1406960
	      0.1326071
	      0.1326043
	      0.1406942
	      0.1145042
	      0.1242375
	      0.3938704
	      0.3853944
	      0.1155323
	      0.1059908
	      0.1326072
	      0.1235092
	      0.1235063
	      0.1326053
	      0.1059933
	      0.1155314
	      0.3853788
	      0.3853912
	      0.1155296
	      0.1059873
	      0.1326032
	      0.1235050
	      0.1235021
	      0.1326013
	      0.1059898
	      0.1155287
	      0.3853756
	      0.3938822
	      0.1242368
	      0.1144997
	      0.1406934
	      0.1326042
	      0.1326014
	      0.1406916
	      0.1145022
	      0.1242359
	      0.3938670
	      0.3781603
	      0.1101472
	      0.0942186
	      0.1145044
	      0.1059933
	      0.1059907
	      0.1145030
	      0.0942213
	      0.1101464
	      0.3781461
	      0.4050795
	      0.1311505
	      0.1101436
	      0.1242366
	      0.1155304
	      0.1155284
	      0.1242355
	      0.1101455
	      0.1311489
	      0.4050658
	      0.7021394
	      0.4050691
	      0.3781424
	      0.3938646
	      0.3853725
	      0.3853700
	      0.3938616
	      0.3781408
	      0.4050622
	      0.7021187
	      0.0626293
	      0.0473688
	      0.0465791
	      0.0507940
	      0.0508213
	      0.0508213
	      0.0507939
	      0.0465789
	      0.0473686
	      0.0626286
	      0.0473689
	      0.0427669
	      0.0392013
	      0.0466610
	      0.0465285
	      0.0465281
	      0.0466607
	      0.0392010
	      0.0427669
	      0.0473683
	      0.0465790
	      0.0392013
	      0.0362196
	      0.0447142
	      0.0437319
	      0.0437311
	      0.0447135
	      0.0362193
	      0.0392015
	      0.0465780
	      0.0507938
	      0.0466608
	      0.0447142
	      0.0540885
	      0.0526607
	      0.0526597
	      0.0540876
	      0.0447139
	      0.0466610
	      0.0507922
	      0.0508212
	      0.0465284
	      0.0437318
	      0.0526607
	      0.0504403
	      0.0504392
	      0.0526598
	      0.0437316
	      0.0465284
	      0.0508195
	      0.0508211
	      0.0465279
	      0.0437308
	      0.0526593
	      0.0504388
	      0.0504377
	      0.0526584
	      0.0437306
	      0.0465278
	      0.0508195
	      0.0507936
	      0.0466604
	      0.0447133
	      0.0540872
	      0.0526593
	      0.0526583
	      0.0540864
	      0.0447130
	      0.0466606
	      0.0507921
	      0.0465786
	      0.0392008
	      0.0362190
	      0.0447136
	      0.0437313
	      0.0437305
	      0.0447130
	      0.0362188
	      0.0392010
	      0.0465776
	      0.0473685
	      0.0427670
	      0.0392012
	      0.0466607
	      0.0465281
	      0.0465277
	      0.0466604
	      0.0392010
	      0.0427670
	      0.0473679
	      0.0626286
	      0.0473682
	      0.0465777
	      0.0507919
	      0.0508193
	      0.0508193
	      0.0507918
	      0.0465776
	      0.0473680
	      0.0626280
	      0.1362904
	      0.1007435
	      0.0920780
	      0.0916010
	      0.0913937
	      0.0913934
	      0.0916003
	      0.0920771
	      0.1007424
	      0.1362884
	      0.1007435
	      0.0780799
	      0.0706728
	      0.0713604
	      0.0709503
	      0.0709501
	      0.0713598
	      0.0706721
	      0.0780796
	      0.1007427
	      0.0920780
	      0.0706729
	      0.0795129
	      0.0746267
	      0.0761899
	      0.0761899
	      0.0746271
	      0.0795127
	      0.0706720
	      0.0920770
	      0.0916007
	      0.0713601
	      0.0746264
	      0.0673421
	      0.0696157
	      0.0696158
	      0.0673423
	      0.0746257
	      0.0713593
	      0.0915998
	      0.0913934
	      0.0709498
	      0.0761896
	      0.0696158
	      0.0733187
	      0.0733190
	      0.0696160
	      0.0761891
	      0.0709492
	      0.0913924
	      0.0913930
	      0.0709497
	      0.0761896
	      0.0696159
	      0.0733190
	      0.0733193
	      0.0696161
	      0.0761891
	      0.0709490
	      0.0913921
	      0.0915998
	      0.0713595
	      0.0746268
	      0.0673423
	      0.0696161
	      0.0696162
	      0.0673425
	      0.0746262
	      0.0713586
	      0.0915989
	      0.0920766
	      0.0706718
	      0.0795122
	      0.0746254
	      0.0761888
	      0.0761888
	      0.0746258
	      0.0795119
	      0.0706710
	      0.0920757
	      0.1007418
	      0.0780795
	      0.0706717
	      0.0713590
	      0.0709488
	      0.0709485
	      0.0713583
	      0.0706710
	      0.0780792
	      0.1007410
	      0.1362879
	      0.1007421
	      0.0920765
	      0.0915993
	      0.0913920
	      0.0913918
	      0.0915987
	      0.0920756
	      0.1007410
	      0.1362859
	      0.1300571
	      0.1026164
	      0.0975782
	      0.0971251
	      0.0970539
	      0.0970536
	      0.0971244
	      0.0975774
	      0.1026156
	      0.1300559
	      0.1026166
	      0.0825872
	      0.0811845
	      0.0821617
	      0.0818251
	      0.0818247
	      0.0821608
	      0.0811839
	      0.0825873
	      0.1026159
	      0.0975784
	      0.0811846
	      0.0861020
	      0.0833697
	      0.0878406
	      0.0878410
	      0.0833697
	      0.0861013
	      0.0811840
	      0.0975776
	      0.0971251
	      0.0821618
	      0.0833694
	      0.0774476
	      0.0826471
	      0.0826477
	      0.0774471
	      0.0833679
	      0.0821608
	      0.0971245
	      0.0970538
	      0.0818249
	      0.0878401
	      0.0826469
	      0.0896641
	      0.0896648
	      0.0826466
	      0.0878387
	      0.0818240
	      0.0970530
	      0.0970534
	      0.0818244
	      0.0878406
	      0.0826476
	      0.0896649
	      0.0896656
	      0.0826472
	      0.0878392
	      0.0818235
	      0.0970526
	      0.0971241
	      0.0821605
	      0.0833692
	      0.0774468
	      0.0826464
	      0.0826470
	      0.0774463
	      0.0833677
	      0.0821595
	      0.0971235
	      0.0975770
	      0.0811835
	      0.0861007
	      0.0833674
	      0.0878383
	      0.0878387
	      0.0833674
	      0.0861001
	      0.0811829
	      0.0975763
	      0.1026150
	      0.0825870
	      0.0811836
	      0.0821605
	      0.0818236
	      0.0818232
	      0.0821596
	      0.0811830
	      0.0825871
	      0.1026144
	      0.1300557
	      0.1026154
	      0.0975772
	      0.0971242
	      0.0970528
	      0.0970525
	      0.0971235
	      0.0975765
	      0.1026146
	      0.1300544
	      0.1087963
	      0.0892820
	      0.0869988
	      0.0876520
	      0.0873159
	      0.0873157
	      0.0876517
	      0.0869985
	      0.0892816
	      0.1087957
	      0.0892823
	      0.0664390
	      0.0705289
	      0.0725168
	      0.0703067
	      0.0703064
	      0.0725165
	      0.0705288
	      0.0664388
	      0.0892823
	      0.0869991
	      0.0705291
	      0.0759952
	      0.0800960
	      0.0834107
	      0.0834105
	      0.0800955
	      0.0759945
	      0.0705310
	      0.0869982
	      0.0876523
	      0.0725171
	      0.0800957
	      0.0831724
	      0.0867702
	      0.0867701
	      0.0831715
	      0.0800944
	      0.0725189
	      0.0876509
	      0.0873160
	      0.0703070
	      0.0834104
	      0.0867701
	      0.0917795
	      0.0917796
	      0.0867693
	      0.0834092
	      0.0703087
	      0.0873144
	      0.0873157
	      0.0703066
	      0.0834101
	      0.0867698
	      0.0917794
	      0.0917795
	      0.0867690
	      0.0834090
	      0.0703083
	      0.0873141
	      0.0876515
	      0.0725167
	      0.0800951
	      0.0831712
	      0.0867690
	      0.0867689
	      0.0831703
	      0.0800938
	      0.0725184
	      0.0876502
	      0.0869981
	      0.0705289
	      0.0759940
	      0.0800940
	      0.0834088
	      0.0834086
	      0.0800935
	      0.0759932
	      0.0705308
	      0.0869972
	      0.0892813
	      0.0664393
	      0.0705311
	      0.0725190
	      0.0703089
	      0.0703086
	      0.0725187
	      0.0705310
	      0.0664391
	      0.0892813
	      0.1087960
	      0.0892820
	      0.0869978
	      0.0876507
	      0.0873143
	      0.0873142
	      0.0876504
	      0.0869975
	      0.0892815
	      0.1087955
	      0.1092322
	      0.0896134
	      0.0875054
	      0.0884669
	      0.0883910
	      0.0883909
	      0.0884666
	      0.0875051
	      0.0896131
	      0.1092316
	      0.0896137
	      0.0722694
	      0.0710429
	      0.0717537
	      0.0708870
	      0.0708867
	      0.0717534
	      0.0710427
	      0.0722694
	      0.0896141
	      0.0875057
	      0.0710431
	      0.0731621
	      0.0753436
	      0.0780479
	      0.0780480
	      0.0753434
	      0.0731616
	      0.0710436
	      0.0875056
	      0.0884673
	      0.0717539
	      0.0753433
	      0.0757459
	      0.0783114
	      0.0783116
	      0.0757454
	      0.0753423
	      0.0717540
	      0.0884669
	      0.0883913
	      0.0708870
	      0.0780476
	      0.0783113
	      0.0820237
	      0.0820240
	      0.0783110
	      0.0780467
	      0.0708871
	      0.0883908
	      0.0883910
	      0.0708867
	      0.0780476
	      0.0783114
	      0.0820240
	      0.0820243
	      0.0783111
	      0.0780467
	      0.0708868
	      0.0883905
	      0.0884666
	      0.0717533
	      0.0753430
	      0.0757452
	      0.0783108
	      0.0783109
	      0.0757447
	      0.0753420
	      0.0717534
	      0.0884662
	      0.0875049
	      0.0710425
	      0.0731610
	      0.0753419
	      0.0780463
	      0.0780463
	      0.0753417
	      0.0731605
	      0.0710431
	      0.0875048
	      0.0896129
	      0.0722697
	      0.0710435
	      0.0717539
	      0.0708871
	      0.0708868
	      0.0717535
	      0.0710432
	      0.0722697
	      0.0896132
	      0.1092321
	      0.0896139
	      0.0875054
	      0.0884669
	      0.0883909
	      0.0883907
	      0.0884666
	      0.0875051
	      0.0896135
	      0.1092315
	      0.1305067
	      0.1030484
	      0.0982447
	      0.0979766
	      0.0980109
	      0.0980106
	      0.0979760
	      0.0982440
	      0.1030477
	      0.1305055
	      0.1030486
	      0.0851618
	      0.0813991
	      0.0815466
	      0.0832930
	      0.0832926
	      0.0815459
	      0.0813984
	      0.0851619
	      0.1030483
	      0.0982449
	      0.0813992
	      0.0870815
	      0.0846206
	      0.0878093
	      0.0878095
	      0.0846207
	      0.0870810
	      0.0813982
	      0.0982445
	      0.0979768
	      0.0815467
	      0.0846203
	      0.0794490
	      0.0828046
	      0.0828050
	      0.0794489
	      0.0846192
	      0.0815449
	      0.0979765
	      0.0980109
	      0.0832926
	      0.0878088
	      0.0828044
	      0.0875982
	      0.0875988
	      0.0828042
	      0.0878076
	      0.0832911
	      0.0980106
	      0.0980104
	      0.0832922
	      0.0878091
	      0.0828049
	      0.0875989
	      0.0875994
	      0.0828047
	      0.0878080
	      0.0832907
	      0.0980101
	      0.0979757
	      0.0815455
	      0.0846202
	      0.0794486
	      0.0828041
	      0.0828046
	      0.0794485
	      0.0846191
	      0.0815437
	      0.0979754
	      0.0982436
	      0.0813980
	      0.0870803
	      0.0846187
	      0.0878072
	      0.0878075
	      0.0846188
	      0.0870798
	      0.0813970
	      0.0982432
	      0.1030472
	      0.0851616
	      0.0813977
	      0.0815446
	      0.0832906
	      0.0832903
	      0.0815438
	      0.0813971
	      0.0851616
	      0.1030468
	      0.1305054
	      0.1030478
	      0.0982441
	      0.0979763
	      0.0980104
	      0.0980102
	      0.0979756
	      0.0982434
	      0.1030471
	      0.1305041
	      0.1365401
	      0.1010866
	      0.0926003
	      0.0919177
	      0.0911969
	      0.0911966
	      0.0919170
	      0.0925995
	      0.1010855
	      0.1365379
	      0.1010866
	      0.0746796
	      0.0720771
	      0.0730471
	      0.0734813
	      0.0734811
	      0.0730466
	      0.0720766
	      0.0746793
	      0.1010852
	      0.0926002
	      0.0720773
	      0.0832032
	      0.0812739
	      0.0824779
	      0.0824776
	      0.0812739
	      0.0832032
	      0.0720776
	      0.0925983
	      0.0919173
	      0.0730469
	      0.0812736
	      0.0788722
	      0.0809042
	      0.0809039
	      0.0788722
	      0.0812734
	      0.0730471
	      0.0919153
	      0.0911964
	      0.0734811
	      0.0824778
	      0.0809043
	      0.0843927
	      0.0843924
	      0.0809043
	      0.0824777
	      0.0734816
	      0.0911943
	      0.0911960
	      0.0734808
	      0.0824774
	      0.0809039
	      0.0843923
	      0.0843921
	      0.0809038
	      0.0824773
	      0.0734813
	      0.0911940
	      0.0919164
	      0.0730464
	      0.0812737
	      0.0788722
	      0.0809042
	      0.0809039
	      0.0788721
	      0.0812736
	      0.0730467
	      0.0919144
	      0.0925988
	      0.0720764
	      0.0832029
	      0.0812732
	      0.0824775
	      0.0824771
	      0.0812733
	      0.0832029
	      0.0720768
	      0.0925968
	      0.1010847
	      0.0746795
	      0.0720775
	      0.0730470
	      0.0734813
	      0.0734810
	      0.0730464
	      0.0720770
	      0.0746792
	      0.1010832
	      0.1365373
	      0.1010844
	      0.0925976
	      0.0919147
	      0.0911937
	      0.0911935
	      0.0919140
	      0.0925967
	      0.1010833
	      0.1365351
	      0.0646787
	      0.0485114
	      0.0480279
	      0.0524300
	      0.0517787
	      0.0517786
	      0.0524298
	      0.0480278
	      0.0485113
	      0.0646780
	      0.0485115
	      0.0433435
	      0.0395147
	      0.0456331
	      0.0448688
	      0.0448682
	      0.0456325
	      0.0395147
	      0.0433434
	      0.0485110
	      0.0480279
	      0.0395146
	      0.0306922
	      0.0357225
	      0.0353333
	      0.0353325
	      0.0357215
	      0.0306921
	      0.0395144
	      0.0480272
	      0.0524298
	      0.0456329
	      0.0357226
	      0.0415709
	      0.0416477
	      0.0416468
	      0.0415697
	      0.0357224
	      0.0456326
	      0.0524287
	      0.0517786
	      0.0448686
	      0.0353333
	      0.0416476
	      0.0418727
	      0.0418716
	      0.0416464
	      0.0353332
	      0.0448681
	      0.0517773
	      0.0517784
	      0.0448678
	      0.0353322
	      0.0416462
	      0.0418712
	      0.0418702
	      0.0416450
	      0.0353320
	      0.0448674
	      0.0517771
	      0.0524296
	      0.0456321
	      0.0357211
	      0.0415692
	      0.0416458
	      0.0416449
	      0.0415680
	      0.0357210
	      0.0456318
	      0.0524284
	      0.0480276
	      0.0395144
	      0.0306919
	      0.0357221
	      0.0353328
	      0.0353320
	      0.0357211
	      0.0306918
	      0.0395142
	      0.0480269
	      0.0485113
	      0.0433434
	      0.0395141
	      0.0456322
	      0.0448677
	      0.0448672
	      0.0456316
	      0.0395141
	      0.0433433
	      0.0485108
	      0.0646782
	      0.0485110
	      0.0480270
	      0.0524285
	      0.0517771
	      0.0517770
	      0.0524282
	      0.0480269
	      0.0485109
	      0.0646775
	      0.6990160
	      0.4066142
	      0.3735039
	      0.3875254
	      0.3829127
	      0.3829106
	      0.3875226
	      0.3735019
	      0.4066074
	      0.6989953
	      0.4066107
	      0.1455344
	      0.1191245
	      0.1315533
	      0.1264729
	      0.1264713
	      0.1315524
	      0.1191259
	      0.1455329
	      0.4065973
	      0.3734987
	      0.1191236
	      0.0977597
	      0.1161589
	      0.1113239
	      0.1113219
	      0.1161579
	      0.0977619
	      0.1191229
	      0.3734848
	      0.3875200
	      0.1315528
	      0.1161596
	      0.1402527
	      0.1356556
	      0.1356533
	      0.1402513
	      0.1161618
	      0.1315521
	      0.3875050
	      0.3829070
	      0.1264725
	      0.1113247
	      0.1356557
	      0.1299186
	      0.1299163
	      0.1356542
	      0.1113268
	      0.1264717
	      0.3828916
	      0.3829044
	      0.1264704
	      0.1113219
	      0.1356525
	      0.1299153
	      0.1299130
	      0.1356510
	      0.1113241
	      0.1264695
	      0.3828889
	      0.3875169
	      0.1315516
	      0.1161581
	      0.1402507
	      0.1356533
	      0.1356511
	      0.1402494
	      0.1161603
	      0.1315509
	      0.3875019
	      0.3734970
	      0.1191256
	      0.0977626
	      0.1161620
	      0.1113268
	      0.1113249
	      0.1161610
	      0.0977648
	      0.1191249
	      0.3734831
	      0.4066019
	      0.1455317
	      0.1191226
	      0.1315513
	      0.1264708
	      0.1264692
	      0.1315504
	      0.1191240
	      0.1455302
	      0.4065885
	      0.6989869
	      0.4065918
	      0.3734799
	      0.3874993
	      0.3828854
	      0.3828833
	      0.3874965
	      0.3734779
	      0.4065850
	      0.6989663
