# vtk DataFile Version 3.0
test_file
ASCII
DATASET POLYDATA
POINTS 1000 float
   0.22500 	   -0.00000 	    0.00000
   0.22500 	   -0.00000 	    1.00000
   0.22500 	    0.00000 	    2.00000
   0.22500 	    0.00000 	    3.00000
   0.22500 	    0.00000 	    4.00000
   0.22500 	    0.00000 	    5.00000
   0.22500 	    0.00000 	    6.00000
   0.22500 	    0.00000 	    7.00000
   0.22500 	   -0.00000 	    8.00000
   0.22500 	    0.00000 	    9.00000
   0.22500 	    1.00000 	    0.00000
   0.22500 	    1.00000 	    1.00000
   0.22500 	    1.00000 	    2.00000
   0.22500 	    1.00000 	    3.00000
   0.22500 	    1.00000 	    4.00000
   0.22500 	    1.00000 	    5.00000
   0.22500 	    1.00000 	    6.00000
   0.22500 	    1.00000 	    7.00000
   0.22500 	    1.00000 	    8.00000
   0.22500 	    1.00000 	    9.00000
   0.22500 	    2.00000 	    0.00000
   0.22500 	    2.00000 	    1.00000
   0.22500 	    2.00000 	    2.00000
   0.22500 	    2.00000 	    3.00000
   0.22500 	    2.00000 	    4.00000
   0.22500 	    2.00000 	    5.00000
   0.22500 	    2.00000 	    6.00000
   0.22500 	    2.00000 	    7.00000
   0.22500 	    2.00000 	    8.00000
   0.22500 	    2.00000 	    9.00000
   0.22500 	    3.00000 	    0.00000
   0.22500 	    3.00000 	    1.00000
   0.22500 	    3.00000 	    2.00000
   0.22500 	    3.00000 	    3.00000
   0.22500 	    3.00000 	    4.00000
   0.22500 	    3.00000 	    5.00000
   0.22500 	    3.00000 	    6.00000
   0.22500 	    3.00000 	    7.00000
   0.22500 	    3.00000 	    8.00000
   0.22500 	    3.00000 	    9.00000
   0.22500 	    4.00000 	    0.00000
   0.22500 	    4.00000 	    1.00000
   0.22500 	    4.00000 	    2.00000
   0.22500 	    4.00000 	    3.00000
   0.22500 	    4.00000 	    4.00000
   0.22500 	    4.00000 	    5.00000
   0.22500 	    4.00000 	    6.00000
   0.22500 	    4.00000 	    7.00000
   0.22500 	    4.00000 	    8.00000
   0.22500 	    4.00000 	    9.00000
   0.22500 	    5.00000 	    0.00000
   0.22500 	    5.00000 	    1.00000
   0.22500 	    5.00000 	    2.00000
   0.22500 	    5.00000 	    3.00000
   0.22500 	    5.00000 	    4.00000
   0.22500 	    5.00000 	    5.00000
   0.22500 	    5.00000 	    6.00000
   0.22500 	    5.00000 	    7.00000
   0.22500 	    5.00000 	    8.00000
   0.22500 	    5.00000 	    9.00000
   0.22500 	    6.00000 	    0.00000
   0.22500 	    6.00000 	    1.00000
   0.22500 	    6.00000 	    2.00000
   0.22500 	    6.00000 	    3.00000
   0.22500 	    6.00000 	    4.00000
   0.22500 	    6.00000 	    5.00000
   0.22500 	    6.00000 	    6.00000
   0.22500 	    6.00000 	    7.00000
   0.22500 	    6.00000 	    8.00000
   0.22500 	    6.00000 	    9.00000
   0.22500 	    7.00000 	    0.00000
   0.22500 	    7.00000 	    1.00000
   0.22500 	    7.00000 	    2.00000
   0.22500 	    7.00000 	    3.00000
   0.22500 	    7.00000 	    4.00000
   0.22500 	    7.00000 	    5.00000
   0.22500 	    7.00000 	    6.00000
   0.22500 	    7.00000 	    7.00000
   0.22500 	    7.00000 	    8.00000
   0.22500 	    7.00000 	    9.00000
   0.22500 	    8.00000 	    0.00000
   0.22500 	    8.00000 	    1.00000
   0.22500 	    8.00000 	    2.00000
   0.22500 	    8.00000 	    3.00000
   0.22500 	    8.00000 	    4.00000
   0.22500 	    8.00000 	    5.00000
   0.22500 	    8.00000 	    6.00000
   0.22500 	    8.00000 	    7.00000
   0.22500 	    8.00000 	    8.00000
   0.22500 	    8.00000 	    9.00000
   0.22500 	    9.00000 	    0.00000
   0.22500 	    9.00000 	    1.00000
   0.22500 	    9.00000 	    2.00000
   0.22500 	    9.00000 	    3.00000
   0.22500 	    9.00000 	    4.00000
   0.22500 	    9.00000 	    5.00000
   0.22500 	    9.00000 	    6.00000
   0.22500 	    9.00000 	    7.00000
   0.22500 	    9.00000 	    8.00000
   0.22500 	    9.00000 	    9.00000
   1.22016 	   -0.03909 	   -0.03909
   1.21822 	   -0.04231 	    0.97681
   1.21661 	   -0.04315 	    1.98828
   1.21735 	   -0.04468 	    2.99059
   1.21685 	   -0.04476 	    3.99625
   1.21685 	   -0.04476 	    5.00375
   1.21735 	   -0.04468 	    6.00941
   1.21661 	   -0.04315 	    7.01172
   1.21823 	   -0.04231 	    8.02319
   1.22016 	   -0.03909 	    9.03909
   1.21823 	    0.97681 	   -0.04231
   1.21995 	    0.96845 	    0.96845
   1.21543 	    0.96937 	    1.98820
   1.21572 	    0.96828 	    2.98460
   1.21647 	    0.96892 	    3.99309
   1.21647 	    0.96892 	    5.00691
   1.21572 	    0.96828 	    6.01540
   1.21543 	    0.96937 	    7.01180
   1.21995 	    0.96845 	    8.03155
   1.21823 	    0.97681 	    9.04230
   1.21661 	    1.98828 	   -0.04315
   1.21543 	    1.98820 	    0.96937
   1.21283 	    1.98912 	    1.98912
   1.21222 	    1.98949 	    2.98061
   1.21380 	    1.98894 	    3.99161
   1.21380 	    1.98894 	    5.00838
   1.21222 	    1.98949 	    6.01939
   1.21283 	    1.98912 	    7.01087
   1.21543 	    1.98820 	    8.03063
   1.21661 	    1.98828 	    9.04314
   1.21735 	    2.99059 	   -0.04468
   1.21572 	    2.98460 	    0.96828
   1.21222 	    2.98060 	    1.98949
   1.21110 	    2.98002 	    2.98002
   1.21254 	    2.97917 	    3.99158
   1.21254 	    2.97917 	    5.00842
   1.21110 	    2.98002 	    6.01998
   1.21222 	    2.98061 	    7.01051
   1.21572 	    2.98460 	    8.03172
   1.21735 	    2.99059 	    9.04467
   1.21685 	    3.99625 	   -0.04476
   1.21647 	    3.99309 	    0.96892
   1.21380 	    3.99161 	    1.98894
   1.21254 	    3.99158 	    2.97917
   1.21393 	    3.99130 	    3.99130
   1.21393 	    3.99130 	    5.00869
   1.21254 	    3.99158 	    6.02083
   1.21380 	    3.99161 	    7.01106
   1.21647 	    3.99309 	    8.03108
   1.21685 	    3.99625 	    9.04476
   1.21685 	    5.00375 	   -0.04476
   1.21647 	    5.00691 	    0.96892
   1.21380 	    5.00838 	    1.98894
   1.21254 	    5.00842 	    2.97917
   1.21393 	    5.00869 	    3.99130
   1.21393 	    5.00869 	    5.00869
   1.21254 	    5.00842 	    6.02083
   1.21380 	    5.00838 	    7.01106
   1.21647 	    5.00691 	    8.03108
   1.21685 	    5.00375 	    9.04476
   1.21735 	    6.00941 	   -0.04468
   1.21572 	    6.01540 	    0.96828
   1.21222 	    6.01939 	    1.98949
   1.21110 	    6.01998 	    2.98002
   1.21254 	    6.02082 	    3.99158
   1.21254 	    6.02082 	    5.00842
   1.21110 	    6.01998 	    6.01998
   1.21222 	    6.01939 	    7.01051
   1.21572 	    6.01539 	    8.03172
   1.21735 	    6.00941 	    9.04467
   1.21661 	    7.01172 	   -0.04315
   1.21543 	    7.01179 	    0.96937
   1.21283 	    7.01087 	    1.98912
   1.21222 	    7.01051 	    2.98061
   1.21380 	    7.01106 	    3.99161
   1.21380 	    7.01106 	    5.00838
   1.21222 	    7.01051 	    6.01939
   1.21283 	    7.01087 	    7.01087
   1.21543 	    7.01179 	    8.03063
   1.21661 	    7.01172 	    9.04314
   1.21823 	    8.02319 	   -0.04230
   1.21995 	    8.03155 	    0.96845
   1.21543 	    8.03063 	    1.98820
   1.21572 	    8.03172 	    2.98460
   1.21647 	    8.03107 	    3.99309
   1.21647 	    8.03107 	    5.00691
   1.21572 	    8.03172 	    6.01540
   1.21543 	    8.03063 	    7.01179
   1.21995 	    8.03155 	    8.03155
   1.21823 	    8.02319 	    9.04230
   1.22016 	    9.03909 	   -0.03909
   1.21823 	    9.04230 	    0.97681
   1.21661 	    9.04314 	    1.98828
   1.21735 	    9.04467 	    2.99059
   1.21685 	    9.04476 	    3.99625
   1.21685 	    9.04476 	    5.00375
   1.21735 	    9.04467 	    6.00941
   1.21661 	    9.04314 	    7.01172
   1.21823 	    9.04230 	    8.02319
   1.22016 	    9.03909 	    9.03909
   2.17358 	   -0.05584 	   -0.05584
   2.18233 	   -0.05900 	    0.95736
   2.18462 	   -0.06221 	    1.97199
   2.18408 	   -0.06495 	    2.98278
   2.18329 	   -0.06633 	    3.99435
   2.18329 	   -0.06633 	    5.00565
   2.18408 	   -0.06495 	    6.01721
   2.18462 	   -0.06221 	    7.02801
   2.18233 	   -0.05900 	    8.04264
   2.17358 	   -0.05584 	    9.05584
   2.18233 	    0.95736 	   -0.05900
   2.20682 	    0.95256 	    0.95256
   2.21564 	    0.94690 	    1.97641
   2.21305 	    0.94462 	    2.98481
   2.21206 	    0.94291 	    3.99533
   2.21206 	    0.94291 	    5.00467
   2.21305 	    0.94462 	    6.01519
   2.21564 	    0.94690 	    7.02359
   2.20682 	    0.95256 	    8.04743
   2.18233 	    0.95736 	    9.05900
   2.18462 	    1.97199 	   -0.06221
   2.21564 	    1.97641 	    0.94690
   2.21937 	    1.97336 	    1.97337
   2.21301 	    1.97138 	    2.98788
   2.21208 	    1.97033 	    3.99646
   2.21208 	    1.97033 	    5.00354
   2.21301 	    1.97138 	    6.01212
   2.21937 	    1.97336 	    7.02663
   2.21564 	    1.97641 	    8.05310
   2.18462 	    1.97199 	    9.06221
   2.18408 	    2.98278 	   -0.06495
   2.21305 	    2.98481 	    0.94462
   2.21301 	    2.98788 	    1.97138
   2.20562 	    2.98687 	    2.98687
   2.20470 	    2.98654 	    3.99600
   2.20470 	    2.98654 	    5.00400
   2.20562 	    2.98687 	    6.01313
   2.21301 	    2.98788 	    7.02862
   2.21305 	    2.98481 	    8.05538
   2.18408 	    2.98278 	    9.06495
   2.18329 	    3.99435 	   -0.06633
   2.21206 	    3.99533 	    0.94291
   2.21208 	    3.99646 	    1.97033
   2.20470 	    3.99600 	    2.98654
   2.20378 	    3.99580 	    3.99580
   2.20378 	    3.99580 	    5.00420
   2.20470 	    3.99600 	    6.01345
   2.21208 	    3.99646 	    7.02966
   2.21206 	    3.99533 	    8.05709
   2.18329 	    3.99435 	    9.06632
   2.18329 	    5.00565 	   -0.06633
   2.21206 	    5.00467 	    0.94291
   2.21208 	    5.00354 	    1.97033
   2.20470 	    5.00400 	    2.98654
   2.20378 	    5.00420 	    3.99580
   2.20378 	    5.00420 	    5.00420
   2.20469 	    5.00400 	    6.01345
   2.21208 	    5.00354 	    7.02966
   2.21206 	    5.00467 	    8.05709
   2.18329 	    5.00565 	    9.06632
   2.18408 	    6.01721 	   -0.06495
   2.21305 	    6.01519 	    0.94462
   2.21301 	    6.01212 	    1.97138
   2.20562 	    6.01313 	    2.98687
   2.20469 	    6.01345 	    3.99600
   2.20469 	    6.01345 	    5.00400
   2.20562 	    6.01313 	    6.01313
   2.21301 	    6.01212 	    7.02862
[...]
POINT_DATA 1000
SCALARS C float
LOOKUP_TABLE default
	      0.7495662
	      0.4302507
	      0.4096001
	      0.4284493
	      0.4151361
	      0.4151335
	      0.4284462
	      0.4095986
	      0.4302437
	      0.7495441
	      0.4302467
	      0.1258086
	      0.1100223
	      0.1274034
	      0.1144972
	      0.1144953
	      0.1274025
	      0.1100246
	      0.1258071
	      0.4302321
	      0.4095943
	      0.1100214
	      0.1004089
	      0.1252641
	      0.1116091
	      0.1116066
	      0.1252626
	      0.1004118
	      0.1100208
	      0.4095788
	      0.4284435
	      0.1274031
	      0.1252650
	      0.1568731
	      0.1428799
	      0.1428771
	      0.1568713
	      0.1252678
	      0.1274024
	      0.4284267
	      0.4151299
	      0.1144971
	      0.1116102
	      0.1428800
	      0.1270360
	      0.1270333
	      0.1428784
	      0.1116132
	      0.1144964
	      0.4151129
	      0.4151266
	      0.1144945
	      0.1116067
	      0.1428760
	      0.1270320
	      0.1270293
	      0.1428743
	      0.1116096
	      0.1144938
	      0.4151096
	      0.4284399
	      0.1274018
	      0.1252630
	      0.1568704
	      0.1428772
	      0.1428744
	      0.1568686
	      0.1252658
	      0.1274011
	      0.4284231
	      0.4095932
	      0.1100244
	      0.1004128
	      0.1252681
	      0.1116132
	      0.1116107
	      0.1252667
	      0.1004157
	      0.1100238
	      0.4095776
	      0.4302376
	      0.1258061
	      0.1100206
	      0.1274017
	      0.1144955
	      0.1144937
	      0.1274008
	      0.1100229
	      0.1258046
	      0.4302231
	      0.7495350
	      0.4302261
	      0.4095733
	      0.4284204
	      0.4151060
	      0.4151034
	      0.4284173
	      0.4095718
	      0.4302190
	      0.7495128
	      0.0643924
	      0.0490431
	      0.0485535
	      0.0531085
	      0.0533241
	      0.0533241
	      0.0531084
	      0.0485534
	      0.0490430
	      0.0643918
	      0.0490433
	      0.0474502
	      0.0458288
	      0.0540237
	      0.0539312
	      0.0539309
	      0.0540235
	      0.0458284
	      0.0474504
	      0.0490429
	      0.0485535
	      0.0458286
	      0.0387034
	      0.0462758
	      0.0451412
	      0.0451407
	      0.0462757
	      0.0387029
	      0.0458287
	      0.0485530
	      0.0531084
	      0.0540235
	      0.0462757
	      0.0541089
	      0.0527023
	      0.0527017
	      0.0541087
	      0.0462751
	      0.0540233
	      0.0531074
	      0.0533240
	      0.0539310
	      0.0451410
	      0.0527024
	      0.0510613
	      0.0510605
	      0.0527021
	      0.0451405
	      0.0539308
	      0.0533231
	      0.0533240
	      0.0539306
	      0.0451404
	      0.0527015
	      0.0510602
	      0.0510595
	      0.0527012
	      0.0451399
	      0.0539304
	      0.0533231
	      0.0531083
	      0.0540232
	      0.0462754
	      0.0541085
	      0.0527018
	      0.0527012
	      0.0541083
	      0.0462749
	      0.0540230
	      0.0531073
	      0.0485532
	      0.0458281
	      0.0387025
	      0.0462748
	      0.0451402
	      0.0451398
	      0.0462747
	      0.0387020
	      0.0458282
	      0.0485527
	      0.0490430
	      0.0474504
	      0.0458285
	      0.0540230
	      0.0539304
	      0.0539302
	      0.0540228
	      0.0458281
	      0.0474506
	      0.0490426
	      0.0643919
	      0.0490429
	      0.0485528
	      0.0531072
	      0.0533230
	      0.0533230
	      0.0531071
	      0.0485527
	      0.0490428
	      0.0643914
	      0.1425676
	      0.1049282
	      0.0957212
	      0.0951008
	      0.0945599
	      0.0945596
	      0.0951002
	      0.0957204
	      0.1049271
	      0.1425654
	      0.1049282
	      0.0802125
	      0.0762370
	      0.0764356
	      0.0763524
	      0.0763521
	      0.0764348
	      0.0762361
	      0.0802123
	      0.1049273
	      0.0957212
	      0.0762369
	      0.0805076
	      0.0763505
	      0.0804532
	      0.0804534
	      0.0763508
	      0.0805070
	      0.0762361
	      0.0957203
	      0.0951006
	      0.0764354
	      0.0763500
	      0.0708400
	      0.0763012
	      0.0763015
	      0.0708401
	      0.0763490
	      0.0764349
	      0.0950996
	      0.0945595
	      0.0763520
	      0.0804528
	      0.0763013
	      0.0828884
	      0.0828887
	      0.0763015
	      0.0804520
	      0.0763515
	      0.0945584
	      0.0945592
	      0.0763517
	      0.0804531
	      0.0763016
	      0.0828888
	      0.0828892
	      0.0763018
	      0.0804524
	      0.0763512
	      0.0945581
	      0.0950997
	      0.0764344
	      0.0763505
	      0.0708401
	      0.0763016
	      0.0763019
	      0.0708402
	      0.0763494
	      0.0764340
	      0.0950987
	      0.0957199
	      0.0762358
	      0.0805064
	      0.0763487
	      0.0804517
	      0.0804519
	      0.0763490
	      0.0805057
	      0.0762349
	      0.0957190
	      0.1049265
	      0.0802123
	      0.0762357
	      0.0764345
	      0.0763511
	      0.0763508
	      0.0764338
	      0.0762349
	      0.0802122
	      0.1049256
	      0.1425649
	      0.1049267
	      0.0957198
	      0.0950991
	      0.0945580
	      0.0945577
	      0.0950984
	      0.0957190
	      0.1049256
	      0.1425627
	      0.1366468
	      0.1077688
	      0.1024725
	      0.1020056
	      0.1019353
	      0.1019350
	      0.1020049
	      0.1024717
	      0.1077680
	      0.1366455
	      0.1077690
	      0.0853233
	      0.0842574
	      0.0841325
	      0.0837571
	      0.0837566
	      0.0841317
	      0.0842568
	      0.0853232
	      0.1077685
	      0.1024727
	      0.0842576
	      0.0900526
	      0.0884376
	      0.0945684
	      0.0945687
	      0.0884374
	      0.0900519
	      0.0842575
	      0.1024717
	      0.1020056
	      0.0841327
	      0.0884374
	      0.0837685
	      0.0899895
	      0.0899897
	      0.0837674
	      0.0884357
	      0.0841330
	      0.1020044
	      0.1019352
	      0.0837571
	      0.0945678
	      0.0899892
	      0.0969313
	      0.0969316
	      0.0899882
	      0.0945664
	      0.0837570
	      0.1019339
	      0.1019347
	      0.0837565
	      0.0945682
	      0.0899893
	      0.0969315
	      0.0969318
	      0.0899883
	      0.0945667
	      0.0837565
	      0.1019334
	      0.1020045
	      0.0841314
	      0.0884368
	      0.0837668
	      0.0899878
	      0.0899880
	      0.0837657
	      0.0884351
	      0.0841317
	      0.1020033
	      0.1024712
	      0.0842566
	      0.0900513
	      0.0884351
	      0.0945658
	      0.0945662
	      0.0884349
	      0.0900506
	      0.0842565
	      0.1024702
	      0.1077674
	      0.0853230
	      0.0842574
	      0.0841327
	      0.0837569
	      0.0837564
	      0.0841319
	      0.0842568
	      0.0853229
	      0.1077669
	      0.1366454
	      0.1077679
	      0.1024712
	      0.1020040
	      0.1019335
	      0.1019333
	      0.1020034
	      0.1024704
	      0.1077671
	      0.1366441
	      0.1138817
	      0.0940854
	      0.0923545
	      0.0938560
	      0.0942554
	      0.0942553
	      0.0938557
	      0.0923542
	      0.0940850
	      0.1138812
	      0.0940857
	      0.0771070
	      0.0727140
	      0.0723643
	      0.0720602
	      0.0720600
	      0.0723642
	      0.0727137
	      0.0771069
	      0.0940861
	      0.0923549
	      0.0727142
	      0.0837366
	      0.0873104
	      0.0892612
	      0.0892606
	      0.0873104
	      0.0837366
	      0.0727144
	      0.0923547
	      0.0938564
	      0.0723643
	      0.0873101
	      0.0885505
	      0.0885265
	      0.0885257
	      0.0885501
	      0.0873098
	      0.0723643
	      0.0938557
	      0.0942557
	      0.0720603
	      0.0892611
	      0.0885265
	      0.0882948
	      0.0882941
	      0.0885263
	      0.0892613
	      0.0720598
	      0.0942550
	      0.0942554
	      0.0720600
	      0.0892604
	      0.0885254
	      0.0882937
	      0.0882930
	      0.0885252
	      0.0892605
	      0.0720595
	      0.0942548
	      0.0938556
	      0.0723640
	      0.0873102
	      0.0885500
	      0.0885260
	      0.0885253
	      0.0885495
	      0.0873099
	      0.0723640
	      0.0938549
	      0.0923539
	      0.0727135
	      0.0837361
	      0.0873096
	      0.0892610
	      0.0892604
	      0.0873097
	      0.0837362
	      0.0727138
	      0.0923537
	      0.0940847
	      0.0771072
	      0.0727143
	      0.0723641
	      0.0720598
	      0.0720596
	      0.0723640
	      0.0727140
	      0.0771071
	      0.0940851
	      0.1138817
	      0.0940859
	      0.0923544
	      0.0938556
	      0.0942551
	      0.0942550
	      0.0938553
	      0.0923541
	      0.0940855
	      0.1138812
	      0.1132865
	      0.0933646
	      0.0915856
	      0.0932485
	      0.0937896
	      0.0937895
	      0.0932482
	      0.0915853
	      0.0933642
	      0.1132859
	      0.0933649
	      0.0749457
	      0.0769211
	      0.0788596
	      0.0793040
	      0.0793037
	      0.0788593
	      0.0769208
	      0.0749459
	      0.0933652
	      0.0915860
	      0.0769211
	      0.0795421
	      0.0823775
	      0.0857504
	      0.0857503
	      0.0823775
	      0.0795419
	      0.0769215
	      0.0915859
	      0.0932489
	      0.0788597
	      0.0823772
	      0.0823922
	      0.0845056
	      0.0845054
	      0.0823918
	      0.0823766
	      0.0788599
	      0.0932485
	      0.0937899
	      0.0793041
	      0.0857502
	      0.0845056
	      0.0869250
	      0.0869249
	      0.0845054
	      0.0857499
	      0.0793040
	      0.0937895
	      0.0937896
	      0.0793038
	      0.0857500
	      0.0845052
	      0.0869247
	      0.0869246
	      0.0845050
	      0.0857497
	      0.0793038
	      0.0937893
	      0.0932482
	      0.0788592
	      0.0823773
	      0.0823916
	      0.0845052
	      0.0845050
	      0.0823912
	      0.0823766
	      0.0788594
	      0.0932478
	      0.0915851
	      0.0769207
	      0.0795414
	      0.0823763
	      0.0857496
	      0.0857494
	      0.0823764
	      0.0795411
	      0.0769211
	      0.0915850
	      0.0933640
	      0.0749462
	      0.0769215
	      0.0788598
	      0.0793041
	      0.0793039
	      0.0788595
	      0.0769212
	      0.0749464
	      0.0933643
	      0.1132863
	      0.0933650
	      0.0915857
	      0.0932485
	      0.0937897
	      0.0937895
	      0.0932482
	      0.0915854
	      0.0933646
	      0.1132858
	      0.1361537
	      0.1074184
	      0.1020564
	      0.1014412
	      0.1013270
	      0.1013268
	      0.1014406
	      0.1020557
	      0.1074176
	      0.1361524
	      0.1074186
	      0.0844714
	      0.0841689
	      0.0847844
	      0.0846509
	      0.0846505
	      0.0847835
	      0.0841683
	      0.0844713
	      0.1074182
	      0.1020567
	      0.0841690
	      0.0890440
	      0.0869962
	      0.0933375
	      0.0933380
	      0.0869960
	      0.0890431
	      0.0841685
	      0.1020560
	      0.1014413
	      0.0847846
	      0.0869959
	      0.0823113
	      0.0895160
	      0.0895165
	      0.0823105
	      0.0869941
	      0.0847842
	      0.1014405
	      0.1013270
	      0.0846507
	      0.0933369
	      0.0895158
	      0.0981641
	      0.0981646
	      0.0895149
	      0.0933353
	      0.0846504
	      0.1013260
	      0.1013265
	      0.0846503
	      0.0933374
	      0.0895162
	      0.0981646
	      0.0981651
	      0.0895153
	      0.0933358
	      0.0846499
	      0.1013255
	      0.1014402
	      0.0847832
	      0.0869955
	      0.0823100
	      0.0895146
	      0.0895151
	      0.0823091
	      0.0869937
	      0.0847828
	      0.1014394
	      0.1020553
	      0.0841680
	      0.0890425
	      0.0869935
	      0.0933348
	      0.0933352
	      0.0869934
	      0.0890416
	      0.0841676
	      0.1020546
	      0.1074171
	      0.0844711
	      0.0841682
	      0.0847839
	      0.0846502
	      0.0846497
	      0.0847830
	      0.0841677
	      0.0844710
	      0.1074167
	      0.1361523
	      0.1074177
	      0.1020555
	      0.1014402
	      0.1013257
	      0.1013255
	      0.1014395
	      0.1020548
	      0.1074169
	      0.1361510
	      0.1431396
	      0.1058525
	      0.0965952
	      0.0955820
	      0.0948352
	      0.0948349
	      0.0955814
	      0.0965944
	      0.1058515
	      0.1431374
	      0.1058526
	      0.0815792
	      0.0726551
	      0.0714263
	      0.0704099
	      0.0704097
	      0.0714257
	      0.0726544
	      0.0815788
	      0.1058515
	      0.0965951
	      0.0726553
	      0.0847775
	      0.0812384
	      0.0836636
	      0.0836634
	      0.0812388
	      0.0847778
	      0.0726545
	      0.0965937
	      0.0955817
	      0.0714260
	      0.0812381
	      0.0775843
	      0.0813769
	      0.0813767
	      0.0775845
	      0.0812382
	      0.0714252
	      0.0955802
	      0.0948347
	      0.0704094
	      0.0836635
	      0.0813771
	      0.0864835
	      0.0864833
	      0.0813773
	      0.0836637
	      0.0704087
	      0.0948331
	      0.0948344
	      0.0704092
	      0.0836632
	      0.0813768
	      0.0864832
	      0.0864830
	      0.0813770
	      0.0836635
	      0.0704085
	      0.0948327
	      0.0955808
	      0.0714252
	      0.0812387
	      0.0775846
	      0.0813774
	      0.0813772
	      0.0775848
	      0.0812387
	      0.0714245
	      0.0955792
	      0.0965937
	      0.0726541
	      0.0847774
	      0.0812380
	      0.0836635
	      0.0836633
	      0.0812384
	      0.0847776
	      0.0726533
	      0.0965923
	      0.1058507
	      0.0815787
	      0.0726541
	      0.0714248
	      0.0704083
	      0.0704080
	      0.0714242
	      0.0726535
	      0.0815783
	      0.1058496
	      0.1431368
	      0.1058508
	      0.0965930
	      0.0955796
	      0.0948326
	      0.0948323
	      0.0955789
	      0.0965922
	      0.1058497
	      0.1431346
	      0.0653499
	      0.0496760
	      0.0492539
	      0.0540028
	      0.0541919
	      0.0541918
	      0.0540027
	      0.0492538
	      0.0496759
	      0.0653493
	      0.0496762
	      0.0474805
	      0.0460930
	      0.0547512
	      0.0550386
	      0.0550382
	      0.0547507
	      0.0460931
	      0.0474805
	      0.0496757
	      0.0492539
	      0.0460929
	      0.0404888
	      0.0466648
	      0.0452800
	      0.0452793
	      0.0466638
	      0.0404888
	      0.0460931
	      0.0492534
	      0.0540027
	      0.0547511
	      0.0466649
	      0.0513128
	      0.0486655
	      0.0486648
	      0.0513116
	      0.0466647
	      0.0547511
	      0.0540018
	      0.0541918
	      0.0550385
	      0.0452799
	      0.0486654
	      0.0449427
	      0.0449419
	      0.0486642
	      0.0452798
	      0.0550384
	      0.0541909
	      0.0541917
	      0.0550379
	      0.0452791
	      0.0486643
	      0.0449416
	      0.0449407
	      0.0486631
	      0.0452790
	      0.0550377
	      0.0541908
	      0.0540025
	      0.0547504
	      0.0466635
	      0.0513111
	      0.0486638
	      0.0486630
	      0.0513099
	      0.0466634
	      0.0547503
	      0.0540016
	      0.0492536
	      0.0460929
	      0.0404887
	      0.0466645
	      0.0452796
	      0.0452789
	      0.0466635
	      0.0404886
	      0.0460931
	      0.0492530
	      0.0496759
	      0.0474806
	      0.0460929
	      0.0547508
	      0.0550381
	      0.0550376
	      0.0547502
	      0.0460929
	      0.0474807
	      0.0496754
	      0.0653495
	      0.0496757
	      0.0492532
	      0.0540016
	      0.0541908
	      0.0541907
	      0.0540015
	      0.0492531
	      0.0496756
	      0.0653489
	      0.7438526
	      0.4264821
	      0.4012351
	      0.4198348
	      0.4092503
	      0.4092478
	      0.4198317
	      0.4012332
	      0.4264751
	      0.7438301
	      0.4264781
	      0.1321595
	      0.1130290
	      0.1306061
	      0.1200544
	      0.1200526
	      0.1306052
	      0.1130310
	      0.1321584
	      0.4264633
	      0.4012293
	      0.1130281
	      0.0990694
	      0.1235809
	      0.1121857
	      0.1121833
	      0.1235795
	      0.0990720
	      0.1130279
	      0.4012135
	      0.4198289
	      0.1306058
	      0.1235818
	      0.1546399
	      0.1428540
	      0.1428513
	      0.1546381
	      0.1235844
	      0.1306054
	      0.4198118
	      0.4092440
	      0.1200543
	      0.1121867
	      0.1428541
	      0.1292468
	      0.1292442
	      0.1428524
	      0.1121895
	      0.1200539
	      0.4092266
	      0.4092408
	      0.1200518
	      0.1121833
	      0.1428502
	      0.1292429
	      0.1292403
	      0.1428485
	      0.1121861
	      0.1200515
	      0.4092234
	      0.4198253
	      0.1306046
	      0.1235798
	      0.1546373
	      0.1428513
	      0.1428486
	      0.1546355
	      0.1235824
	      0.1306042
	      0.4198082
	      0.4012277
	      0.1130308
	      0.0990730
	      0.1235847
	      0.1121895
	      0.1121871
	      0.1235833
	      0.0990756
	      0.1130305
	      0.4012120
	      0.4264691
	      0.1321575
	      0.1130277
	      0.1306047
	      0.1200531
	      0.1200514
	      0.1306038
	      0.1130297
	      0.1321564
	      0.4264542
	      0.7438207
	      0.4264572
	      0.4012080
	      0.4198054
	      0.4092196
	      0.4092171
	      0.4198022
	      0.4012062
	      0.4264502
	      0.7437982
