# vtk DataFile Version 3.0
test_file
ASCII
DATASET POLYDATA
POINTS 1000 float
   1.22500 	   -0.00000 	    0.00000
   1.22500 	   -0.00000 	    1.00000
   1.22500 	    0.00000 	    2.00000
   1.22500 	    0.00000 	    3.00000
   1.22500 	    0.00000 	    4.00000
   1.22500 	    0.00000 	    5.00000
   1.22500 	    0.00000 	    6.00000
   1.22500 	    0.00000 	    7.00000
   1.22500 	   -0.00000 	    8.00000
   1.22500 	    0.00000 	    9.00000
   1.22500 	    1.00000 	    0.00000
   1.22500 	    1.00000 	    1.00000
   1.22500 	    1.00000 	    2.00000
   1.22500 	    1.00000 	    3.00000
   1.22500 	    1.00000 	    4.00000
   1.22500 	    1.00000 	    5.00000
   1.22500 	    1.00000 	    6.00000
   1.22500 	    1.00000 	    7.00000
   1.22500 	    1.00000 	    8.00000
   1.22500 	    1.00000 	    9.00000
   1.22500 	    2.00000 	    0.00000
   1.22500 	    2.00000 	    1.00000
   1.22500 	    2.00000 	    2.00000
   1.22500 	    2.00000 	    3.00000
   1.22500 	    2.00000 	    4.00000
   1.22500 	    2.00000 	    5.00000
   1.22500 	    2.00000 	    6.00000
   1.22500 	    2.00000 	    7.00000
   1.22500 	    2.00000 	    8.00000
   1.22500 	    2.00000 	    9.00000
   1.22500 	    3.00000 	    0.00000
   1.22500 	    3.00000 	    1.00000
   1.22500 	    3.00000 	    2.00000
   1.22500 	    3.00000 	    3.00000
   1.22500 	    3.00000 	    4.00000
   1.22500 	    3.00000 	    5.00000
   1.22500 	    3.00000 	    6.00000
   1.22500 	    3.00000 	    7.00000
   1.22500 	    3.00000 	    8.00000
   1.22500 	    3.00000 	    9.00000
   1.22500 	    4.00000 	    0.00000
   1.22500 	    4.00000 	    1.00000
   1.22500 	    4.00000 	    2.00000
   1.22500 	    4.00000 	    3.00000
   1.22500 	    4.00000 	    4.00000
   1.22500 	    4.00000 	    5.00000
   1.22500 	    4.00000 	    6.00000
   1.22500 	    4.00000 	    7.00000
   1.22500 	    4.00000 	    8.00000
   1.22500 	    4.00000 	    9.00000
   1.22500 	    5.00000 	    0.00000
   1.22500 	    5.00000 	    1.00000
   1.22500 	    5.00000 	    2.00000
   1.22500 	    5.00000 	    3.00000
   1.22500 	    5.00000 	    4.00000
   1.22500 	    5.00000 	    5.00000
   1.22500 	    5.00000 	    6.00000
   1.22500 	    5.00000 	    7.00000
   1.22500 	    5.00000 	    8.00000
   1.22500 	    5.00000 	    9.00000
   1.22500 	    6.00000 	    0.00000
   1.22500 	    6.00000 	    1.00000
   1.22500 	    6.00000 	    2.00000
   1.22500 	    6.00000 	    3.00000
   1.22500 	    6.00000 	    4.00000
   1.22500 	    6.00000 	    5.00000
   1.22500 	    6.00000 	    6.00000
   1.22500 	    6.00000 	    7.00000
   1.22500 	    6.00000 	    8.00000
   1.22500 	    6.00000 	    9.00000
   1.22500 	    7.00000 	    0.00000
   1.22500 	    7.00000 	    1.00000
   1.22500 	    7.00000 	    2.00000
   1.22500 	    7.00000 	    3.00000
   1.22500 	    7.00000 	    4.00000
   1.22500 	    7.00000 	    5.00000
   1.22500 	    7.00000 	    6.00000
   1.22500 	    7.00000 	    7.00000
   1.22500 	    7.00000 	    8.00000
   1.22500 	    7.00000 	    9.00000
   1.22500 	    8.00000 	    0.00000
   1.22500 	    8.00000 	    1.00000
   1.22500 	    8.00000 	    2.00000
   1.22500 	    8.00000 	    3.00000
   1.22500 	    8.00000 	    4.00000
   1.22500 	    8.00000 	    5.00000
   1.22500 	    8.00000 	    6.00000
   1.22500 	    8.00000 	    7.00000
   1.22500 	    8.00000 	    8.00000
   1.22500 	    8.00000 	    9.00000
   1.22500 	    9.00000 	    0.00000
   1.22500 	    9.00000 	    1.00000
   1.22500 	    9.00000 	    2.00000
   1.22500 	    9.00000 	    3.00000
   1.22500 	    9.00000 	    4.00000
   1.22500 	    9.00000 	    5.00000
   1.22500 	    9.00000 	    6.00000
   1.22500 	    9.00000 	    7.00000
   1.22500 	    9.00000 	    8.00000
   1.22500 	    9.00000 	    9.00000
   2.24612 	   -0.24232 	   -0.24232
   2.23168 	   -0.26138 	    0.87587
   2.23045 	   -0.26049 	    1.93185
   2.23923 	   -0.26800 	    2.94604
   2.23249 	   -0.26688 	    3.97987
   2.23249 	   -0.26688 	    5.02012
   2.23923 	   -0.26800 	    6.05396
   2.23045 	   -0.26048 	    7.06815
   2.23168 	   -0.26138 	    8.12413
   2.24612 	   -0.24231 	    9.24232
   2.23168 	    0.87587 	   -0.26138
   2.18502 	    0.83493 	    0.83493
   2.17418 	    0.85103 	    1.91042
   2.17759 	    0.84626 	    2.91833
   2.17607 	    0.85047 	    3.96892
   2.17607 	    0.85047 	    5.03107
   2.17759 	    0.84626 	    6.08166
   2.17418 	    0.85103 	    7.08957
   2.18502 	    0.83493 	    8.16506
   2.23168 	    0.87587 	    9.26137
   2.23045 	    1.93185 	   -0.26048
   2.17418 	    1.91042 	    0.85103
   2.18645 	    1.91570 	    1.91571
   2.18538 	    1.91596 	    2.90485
   2.18783 	    1.91631 	    3.96345
   2.18783 	    1.91632 	    5.03654
   2.18538 	    1.91596 	    6.09513
   2.18645 	    1.91571 	    7.08429
   2.17418 	    1.91042 	    8.14896
   2.23045 	    1.93185 	    9.26047
   2.23923 	    2.94604 	   -0.26800
   2.17759 	    2.91833 	    0.84626
   2.18538 	    2.90485 	    1.91596
   2.18124 	    2.90253 	    2.90253
   2.18365 	    2.90150 	    3.96298
   2.18365 	    2.90150 	    5.03701
   2.18124 	    2.90253 	    6.09746
   2.18538 	    2.90485 	    7.08403
   2.17759 	    2.91833 	    8.15373
   2.23923 	    2.94604 	    9.26799
   2.23249 	    3.97987 	   -0.26687
   2.17607 	    3.96892 	    0.85048
   2.18783 	    3.96345 	    1.91632
   2.18365 	    3.96297 	    2.90150
   2.18599 	    3.96289 	    3.96290
   2.18599 	    3.96289 	    5.03709
   2.18365 	    3.96297 	    6.09849
   2.18783 	    3.96345 	    7.08368
   2.17606 	    3.96892 	    8.14951
   2.23249 	    3.97987 	    9.26687
   2.23249 	    5.02012 	   -0.26687
   2.17607 	    5.03106 	    0.85048
   2.18783 	    5.03653 	    1.91632
   2.18365 	    5.03701 	    2.90150
   2.18599 	    5.03709 	    3.96290
   2.18599 	    5.03709 	    5.03709
   2.18365 	    5.03701 	    6.09849
   2.18783 	    5.03653 	    7.08368
   2.17606 	    5.03106 	    8.14951
   2.23249 	    5.02012 	    9.26686
   2.23923 	    6.05396 	   -0.26800
   2.17759 	    6.08165 	    0.84626
   2.18538 	    6.09513 	    1.91596
   2.18124 	    6.09745 	    2.90253
   2.18365 	    6.09848 	    3.96298
   2.18365 	    6.09848 	    5.03701
   2.18124 	    6.09745 	    6.09746
   2.18538 	    6.09513 	    7.08403
   2.17759 	    6.08165 	    8.15373
   2.23923 	    6.05396 	    9.26799
   2.23045 	    7.06815 	   -0.26048
   2.17418 	    7.08957 	    0.85103
   2.18645 	    7.08428 	    1.91571
   2.18538 	    7.08403 	    2.90486
   2.18783 	    7.08367 	    3.96345
   2.18783 	    7.08367 	    5.03654
   2.18538 	    7.08403 	    6.09513
   2.18644 	    7.08428 	    7.08428
   2.17418 	    7.08956 	    8.14896
   2.23045 	    7.06815 	    9.26047
   2.23168 	    8.12413 	   -0.26137
   2.18502 	    8.16506 	    0.83493
   2.17418 	    8.14896 	    1.91042
   2.17759 	    8.15373 	    2.91833
   2.17606 	    8.14951 	    3.96892
   2.17606 	    8.14951 	    5.03106
   2.17759 	    8.15373 	    6.08166
   2.17418 	    8.14895 	    7.08957
   2.18502 	    8.16506 	    8.16506
   2.23168 	    8.12412 	    9.26136
   2.24612 	    9.24231 	   -0.24231
   2.23168 	    9.26137 	    0.87587
   2.23045 	    9.26047 	    1.93185
   2.23923 	    9.26799 	    2.94604
   2.23250 	    9.26686 	    3.97987
   2.23249 	    9.26686 	    5.02012
   2.23923 	    9.26799 	    6.05396
   2.23045 	    9.26047 	    7.06815
   2.23168 	    9.26136 	    8.12412
   2.24612 	    9.24231 	    9.24231
   2.94136 	   -0.34254 	   -0.34254
   2.99516 	   -0.36080 	    0.74628
   3.01396 	   -0.37296 	    1.83223
   3.01458 	   -0.38492 	    2.89736
   3.00931 	   -0.39195 	    3.96643
   3.00931 	   -0.39195 	    5.03356
   3.01458 	   -0.38492 	    6.10263
   3.01396 	   -0.37296 	    7.16776
   2.99516 	   -0.36079 	    8.25371
   2.94136 	   -0.34253 	    9.34253
   2.99516 	    0.74628 	   -0.36080
   3.10150 	    0.71634 	    0.71635
   3.13920 	    0.70252 	    1.84023
   3.13885 	    0.69266 	    2.90512
   3.13223 	    0.68092 	    3.96963
   3.13223 	    0.68092 	    5.03036
   3.13885 	    0.69266 	    6.09486
   3.13919 	    0.70252 	    7.15976
   3.10150 	    0.71635 	    8.28364
   2.99517 	    0.74629 	    9.36079
   3.01396 	    1.83223 	   -0.37296
   3.13920 	    1.84023 	    0.70252
   3.16379 	    1.84264 	    1.84264
   3.15192 	    1.83778 	    2.90652
   3.13547 	    1.82551 	    3.96727
   3.13547 	    1.82551 	    5.03272
   3.15192 	    1.83778 	    6.09347
   3.16379 	    1.84264 	    7.15735
   3.13920 	    1.84024 	    8.29747
   3.01396 	    1.83223 	    9.37294
   3.01459 	    2.89735 	   -0.38492
   3.13885 	    2.90512 	    0.69267
   3.15192 	    2.90652 	    1.83778
   3.13646 	    2.90366 	    2.90367
   3.11899 	    2.89790 	    3.96585
   3.11899 	    2.89790 	    5.03414
   3.13646 	    2.90366 	    6.09632
   3.15191 	    2.90652 	    7.16220
   3.13886 	    2.90512 	    8.30732
   3.01459 	    2.89736 	    9.38490
   3.00932 	    3.96643 	   -0.39194
   3.13223 	    3.96962 	    0.68093
   3.13547 	    3.96726 	    1.82551
   3.11899 	    3.96584 	    2.89790
   3.09976 	    3.96403 	    3.96404
   3.09976 	    3.96403 	    5.03595
   3.11899 	    3.96584 	    6.10208
   3.13546 	    3.96726 	    7.17448
   3.13224 	    3.96962 	    8.31906
   3.00932 	    3.96643 	    9.39193
   3.00932 	    5.03355 	   -0.39194
   3.13223 	    5.03036 	    0.68093
   3.13547 	    5.03271 	    1.82551
   3.11899 	    5.03414 	    2.89790
   3.09976 	    5.03594 	    3.96404
   3.09976 	    5.03594 	    5.03595
   3.11899 	    5.03414 	    6.10208
   3.13547 	    5.03271 	    7.17448
   3.13224 	    5.03036 	    8.31906
   3.00932 	    5.03355 	    9.39193
   3.01459 	    6.10263 	   -0.38491
   3.13885 	    6.09486 	    0.69267
   3.15191 	    6.09346 	    1.83778
   3.13646 	    6.09632 	    2.90367
   3.11899 	    6.10208 	    3.96585
   3.11899 	    6.10208 	    5.03414
   3.13646 	    6.09632 	    6.09632
   3.15191 	    6.09346 	    7.16221
[...]
POINT_DATA 1000
SCALARS C float
LOOKUP_TABLE default
	      1.6547105
	      0.9233231
	      0.9400899
	      0.9809126
	      0.9291632
	      0.9291592
	      0.9809059
	      0.9400893
	      0.9233170
	      1.6546759
	      0.9233149
	      0.1115684
	      0.1300550
	      0.1915876
	      0.1469476
	      0.1469451
	      0.1915846
	      0.1300604
	      0.1115708
	      0.9232930
	      0.9400798
	      0.1300549
	      0.1543443
	      0.2431408
	      0.1926498
	      0.1926468
	      0.2431366
	      0.1543497
	      0.1300595
	      0.9400536
	      0.9809035
	      0.1915894
	      0.2431433
	      0.3541993
	      0.2996665
	      0.2996635
	      0.3541944
	      0.2431478
	      0.1915939
	      0.9808758
	      0.9291532
	      0.1469489
	      0.1926518
	      0.2996661
	      0.2379051
	      0.2379021
	      0.2996613
	      0.1926564
	      0.1469537
	      0.9291261
	      0.9291483
	      0.1469454
	      0.1926472
	      0.2996611
	      0.2379002
	      0.2378971
	      0.2996562
	      0.1926518
	      0.1469502
	      0.9291212
	      0.9808957
	      0.1915849
	      0.2431371
	      0.3541918
	      0.2996589
	      0.2996558
	      0.3541869
	      0.2431417
	      0.1915894
	      0.9808679
	      0.9400804
	      0.1300622
	      0.1543526
	      0.2431484
	      0.1926568
	      0.1926539
	      0.2431441
	      0.1543580
	      0.1300668
	      0.9400542
	      0.9233077
	      0.1115714
	      0.1300613
	      0.1915942
	      0.1469540
	      0.1469515
	      0.1915911
	      0.1300667
	      0.1115739
	      0.9232858
	      1.6546640
	      0.9232837
	      0.9400447
	      0.9808655
	      0.9291151
	      0.9291112
	      0.9808588
	      0.9400441
	      0.9232777
	      1.6546294
	      0.1317665
	      0.1006925
	      0.1008634
	      0.1105417
	      0.1110508
	      0.1110507
	      0.1105417
	      0.1008630
	      0.1006917
	      0.1317657
	      0.1006926
	      0.1122475
	      0.1138109
	      0.1326047
	      0.1316884
	      0.1316881
	      0.1326050
	      0.1138102
	      0.1122468
	      0.1006910
	      0.1008629
	      0.1138104
	      0.0946189
	      0.1126405
	      0.1090027
	      0.1090024
	      0.1126420
	      0.0946184
	      0.1138099
	      0.1008609
	      0.1105411
	      0.1326039
	      0.1126401
	      0.1330597
	      0.1297983
	      0.1297978
	      0.1330612
	      0.1126398
	      0.1326033
	      0.1105386
	      0.1110503
	      0.1316878
	      0.1090028
	      0.1297987
	      0.1261991
	      0.1261987
	      0.1298004
	      0.1090027
	      0.1316872
	      0.1110479
	      0.1110502
	      0.1316875
	      0.1090023
	      0.1297980
	      0.1261985
	      0.1261980
	      0.1297997
	      0.1090022
	      0.1316869
	      0.1110478
	      0.1105411
	      0.1326045
	      0.1126421
	      0.1330619
	      0.1298006
	      0.1298001
	      0.1330634
	      0.1126418
	      0.1326040
	      0.1105386
	      0.1008623
	      0.1138095
	      0.0946179
	      0.1126399
	      0.1090026
	      0.1090022
	      0.1126414
	      0.0946173
	      0.1138089
	      0.1008604
	      0.1006912
	      0.1122466
	      0.1138091
	      0.1326028
	      0.1316867
	      0.1316864
	      0.1326032
	      0.1138084
	      0.1122459
	      0.1006896
	      0.1317659
	      0.1006905
	      0.1008603
	      0.1105379
	      0.1110474
	      0.1110473
	      0.1105379
	      0.1008599
	      0.1006897
	      0.1317651
	      0.2774197
	      0.2066380
	      0.1881611
	      0.1861926
	      0.1846749
	      0.1846748
	      0.1861922
	      0.1881602
	      0.2066363
	      0.2774179
	      0.2066381
	      0.1742064
	      0.1665299
	      0.1660548
	      0.1655263
	      0.1655263
	      0.1660544
	      0.1665289
	      0.1742047
	      0.2066383
	      0.1881613
	      0.1665293
	      0.1445667
	      0.1343840
	      0.1468120
	      0.1468125
	      0.1343843
	      0.1445628
	      0.1665267
	      0.1881614
	      0.1861927
	      0.1660538
	      0.1343830
	      0.1226047
	      0.1359518
	      0.1359516
	      0.1226048
	      0.1343796
	      0.1660509
	      0.1861926
	      0.1846749
	      0.1655253
	      0.1468107
	      0.1359516
	      0.1506490
	      0.1506491
	      0.1359516
	      0.1468066
	      0.1655223
	      0.1846748
	      0.1846747
	      0.1655253
	      0.1468117
	      0.1359515
	      0.1506484
	      0.1506485
	      0.1359515
	      0.1468077
	      0.1655222
	      0.1846746
	      0.1861920
	      0.1660533
	      0.1343829
	      0.1226048
	      0.1359515
	      0.1359514
	      0.1226049
	      0.1343796
	      0.1660505
	      0.1861920
	      0.1881598
	      0.1665277
	      0.1445609
	      0.1343783
	      0.1468059
	      0.1468064
	      0.1343785
	      0.1445570
	      0.1665250
	      0.1881599
	      0.2066359
	      0.1742045
	      0.1665255
	      0.1660499
	      0.1655212
	      0.1655212
	      0.1660495
	      0.1665244
	      0.1742028
	      0.2066361
	      0.2774180
	      0.2066379
	      0.1881610
	      0.1861924
	      0.1846747
	      0.1846746
	      0.1861920
	      0.1881601
	      0.2066363
	      0.2774162
	      0.2565013
	      0.2074836
	      0.1981203
	      0.1971839
	      0.1969869
	      0.1969867
	      0.1971834
	      0.1981194
	      0.2074822
	      0.2565001
	      0.2074842
	      0.1733122
	      0.1687469
	      0.1645563
	      0.1633053
	      0.1633052
	      0.1645560
	      0.1687462
	      0.1733126
	      0.2074844
	      0.1981209
	      0.1687473
	      0.2238179
	      0.2140316
	      0.2386657
	      0.2386646
	      0.2140319
	      0.2238162
	      0.1687481
	      0.1981204
	      0.1971844
	      0.1645566
	      0.2140305
	      0.1819438
	      0.2062752
	      0.2062738
	      0.1819449
	      0.2140302
	      0.1645573
	      0.1971837
	      0.1969871
	      0.1633055
	      0.2386648
	      0.2062757
	      0.2351955
	      0.2351938
	      0.2062766
	      0.2386639
	      0.1633056
	      0.1969863
	      0.1969868
	      0.1633052
	      0.2386638
	      0.2062739
	      0.2351929
	      0.2351912
	      0.2062748
	      0.2386629
	      0.1633053
	      0.1969859
	      0.1971834
	      0.1645559
	      0.2140312
	      0.1819451
	      0.2062766
	      0.2062753
	      0.1819462
	      0.2140309
	      0.1645566
	      0.1971827
	      0.1981191
	      0.1687461
	      0.2238152
	      0.2140295
	      0.2386631
	      0.2386620
	      0.2140298
	      0.2238135
	      0.1687469
	      0.1981186
	      0.2074817
	      0.1733131
	      0.1687480
	      0.1645571
	      0.1633057
	      0.1633056
	      0.1645569
	      0.1687473
	      0.1733135
	      0.2074819
	      0.2565001
	      0.2074839
	      0.1981201
	      0.1971836
	      0.1969864
	      0.1969862
	      0.1971831
	      0.1981192
	      0.2074825
	      0.2564989
	      0.1984560
	      0.1757796
	      0.1750068
	      0.1784093
	      0.1791646
	      0.1791644
	      0.1784089
	      0.1750063
	      0.1757789
	      0.1984560
	      0.1757805
	      0.1438767
	      0.1447924
	      0.1441324
	      0.1422694
	      0.1422690
	      0.1441322
	      0.1447922
	      0.1438782
	      0.1757819
	      0.1750079
	      0.1447934
	      0.2034459
	      0.1935575
	      0.2132411
	      0.2132415
	      0.1935574
	      0.2034416
	      0.1447958
	      0.1750085
	      0.1784104
	      0.1441335
	      0.1935559
	      0.1545316
	      0.1751133
	      0.1751146
	      0.1545325
	      0.1935519
	      0.1441357
	      0.1784106
	      0.1791654
	      0.1422703
	      0.2132395
	      0.1751137
	      0.2029911
	      0.2029912
	      0.1751132
	      0.2132359
	      0.1422725
	      0.1791655
	      0.1791650
	      0.1422697
	      0.2132398
	      0.1751147
	      0.2029914
	      0.2029915
	      0.1751142
	      0.2132362
	      0.1422719
	      0.1791651
	      0.1784093
	      0.1441328
	      0.1935565
	      0.1545323
	      0.1751132
	      0.1751146
	      0.1545331
	      0.1935525
	      0.1441349
	      0.1784095
	      0.1750064
	      0.1447924
	      0.2034399
	      0.1935510
	      0.2132343
	      0.2132347
	      0.1935509
	      0.2034355
	      0.1447949
	      0.1750070
	      0.1757789
	      0.1438789
	      0.1447960
	      0.1441363
	      0.1422732
	      0.1422728
	      0.1441361
	      0.1447958
	      0.1438805
	      0.1757802
	      0.1984569
	      0.1757818
	      0.1750086
	      0.1784110
	      0.1791661
	      0.1791659
	      0.1784106
	      0.1750082
	      0.1757812
	      0.1984569
	      0.1984471
	      0.1757847
	      0.1750254
	      0.1784284
	      0.1791768
	      0.1791765
	      0.1784279
	      0.1750250
	      0.1757842
	      0.1984473
	      0.1757857
	      0.1439445
	      0.1450260
	      0.1444478
	      0.1425901
	      0.1425897
	      0.1444475
	      0.1450258
	      0.1439459
	      0.1757872
	      0.1750266
	      0.1450270
	      0.2022555
	      0.1929088
	      0.2122477
	      0.2122487
	      0.1929086
	      0.2022526
	      0.1450289
	      0.1750271
	      0.1784294
	      0.1444489
	      0.1929074
	      0.1547855
	      0.1753657
	      0.1753678
	      0.1547864
	      0.1929053
	      0.1444505
	      0.1784295
	      0.1791776
	      0.1425909
	      0.2122463
	      0.1753659
	      0.2039691
	      0.2039706
	      0.1753656
	      0.2122444
	      0.1425923
	      0.1791775
	      0.1791771
	      0.1425902
	      0.2122477
	      0.1753682
	      0.2039710
	      0.2039725
	      0.1753679
	      0.2122458
	      0.1425917
	      0.1791771
	      0.1784283
	      0.1444479
	      0.1929077
	      0.1547862
	      0.1753660
	      0.1753681
	      0.1547871
	      0.1929056
	      0.1444496
	      0.1784284
	      0.1750251
	      0.1450259
	      0.2022516
	      0.1929044
	      0.2122435
	      0.2122444
	      0.1929042
	      0.2022488
	      0.1450278
	      0.1750256
	      0.1757842
	      0.1439463
	      0.1450290
	      0.1444510
	      0.1425929
	      0.1425925
	      0.1444507
	      0.1450288
	      0.1439476
	      0.1757857
	      0.1984483
	      0.1757872
	      0.1750272
	      0.1784299
	      0.1791781
	      0.1791779
	      0.1784294
	      0.1750268
	      0.1757867
	      0.1984485
	      0.2565804
	      0.2075488
	      0.1981919
	      0.1972393
	      0.1970234
	      0.1970232
	      0.1972387
	      0.1981910
	      0.2075477
	      0.2565794
	      0.2075494
	      0.1734299
	      0.1690266
	      0.1648896
	      0.1636939
	      0.1636938
	      0.1648893
	      0.1690258
	      0.1734301
	      0.2075496
	      0.1981925
	      0.1690272
	      0.2230345
	      0.2139405
	      0.2378511
	      0.2378499
	      0.2139393
	      0.2230332
	      0.1690281
	      0.1981916
	      0.1972397
	      0.1648901
	      0.2139393
	      0.1829895
	      0.2062842
	      0.2062827
	      0.1829881
	      0.2139391
	      0.1648910
	      0.1972384
	      0.1970236
	      0.1636941
	      0.2378504
	      0.2062841
	      0.2342386
	      0.2342371
	      0.2062822
	      0.2378495
	      0.1636945
	      0.1970222
	      0.1970232
	      0.1636938
	      0.2378494
	      0.2062823
	      0.2342360
	      0.2342345
	      0.2062805
	      0.2378485
	      0.1636943
	      0.1970218
	      0.1972385
	      0.1648892
	      0.2139384
	      0.1829873
	      0.2062818
	      0.2062804
	      0.1829859
	      0.2139382
	      0.1648901
	      0.1972372
	      0.1981906
	      0.1690255
	      0.2230323
	      0.2139382
	      0.2378490
	      0.2378478
	      0.2139370
	      0.2230310
	      0.1690264
	      0.1981897
	      0.2075472
	      0.1734303
	      0.1690278
	      0.1648909
	      0.1636946
	      0.1636945
	      0.1648906
	      0.1690270
	      0.1734305
	      0.2075474
	      0.2565796
	      0.2075491
	      0.1981912
	      0.1972382
	      0.1970222
	      0.1970220
	      0.1972376
	      0.1981904
	      0.2075481
	      0.2565786
	      0.2777907
	      0.2068691
	      0.1883878
	      0.1864117
	      0.1848849
	      0.1848847
	      0.1864111
	      0.1883869
	      0.2068677
	      0.2777883
	      0.2068694
	      0.1742972
	      0.1665774
	      0.1660594
	      0.1655479
	      0.1655478
	      0.1660588
	      0.1665767
	      0.1742964
	      0.2068679
	      0.1883877
	      0.1665773
	      0.1439863
	      0.1345568
	      0.1466985
	      0.1467001
	      0.1345577
	      0.1439839
	      0.1665773
	      0.1883857
	      0.1864114
	      0.1660589
	      0.1345560
	      0.1238376
	      0.1366709
	      0.1366727
	      0.1238386
	      0.1345536
	      0.1660588
	      0.1864091
	      0.1848845
	      0.1655473
	      0.1466974
	      0.1366709
	      0.1502963
	      0.1502981
	      0.1366718
	      0.1466945
	      0.1655472
	      0.1848822
	      0.1848842
	      0.1655472
	      0.1466998
	      0.1366732
	      0.1502981
	      0.1502999
	      0.1366741
	      0.1466969
	      0.1655471
	      0.1848819
	      0.1864105
	      0.1660582
	      0.1345569
	      0.1238388
	      0.1366723
	      0.1366741
	      0.1238398
	      0.1345546
	      0.1660580
	      0.1864082
	      0.1883861
	      0.1665760
	      0.1439831
	      0.1345529
	      0.1466942
	      0.1466958
	      0.1345537
	      0.1439807
	      0.1665760
	      0.1883841
	      0.2068668
	      0.1742966
	      0.1665766
	      0.1660581
	      0.1655465
	      0.1655465
	      0.1660575
	      0.1665758
	      0.1742958
	      0.2068654
	      0.2777878
	      0.2068671
	      0.1883849
	      0.1864085
	      0.1848817
	      0.1848815
	      0.1864079
	      0.1883840
	      0.2068656
	      0.2777853
	      0.1321865
	      0.1009251
	      0.1011042
	      0.1108129
	      0.1113396
	      0.1113395
	      0.1108127
	      0.1011040
	      0.1009248
	      0.1321855
	      0.1009252
	      0.1121939
	      0.1137380
	      0.1325452
	      0.1316192
	      0.1316188
	      0.1325445
	      0.1137377
	      0.1121929
	      0.1009247
	      0.1011040
	      0.1137374
	      0.0943446
	      0.1123350
	      0.1087011
	      0.1087004
	      0.1123341
	      0.0943444
	      0.1137360
	      0.1011031
	      0.1108125
	      0.1325445
	      0.1123351
	      0.1326848
	      0.1295268
	      0.1295258
	      0.1326837
	      0.1123351
	      0.1325429
	      0.1108113
	      0.1113393
	      0.1316186
	      0.1087012
	      0.1295269
	      0.1261327
	      0.1261316
	      0.1295258
	      0.1087014
	      0.1316169
	      0.1113379
	      0.1113392
	      0.1316180
	      0.1087001
	      0.1295254
	      0.1261312
	      0.1261301
	      0.1295243
	      0.1087003
	      0.1316163
	      0.1113379
	      0.1108123
	      0.1325436
	      0.1123338
	      0.1326833
	      0.1295254
	      0.1295244
	      0.1326822
	      0.1123338
	      0.1325419
	      0.1108110
	      0.1011037
	      0.1137367
	      0.0943440
	      0.1123348
	      0.1087012
	      0.1087004
	      0.1123339
	      0.0943438
	      0.1137353
	      0.1011028
	      0.1009246
	      0.1121924
	      0.1137351
	      0.1325419
	      0.1316161
	      0.1316156
	      0.1325412
	      0.1137347
	      0.1121914
	      0.1009241
	      0.1321860
	      0.1009246
	      0.1011028
	      0.1108109
	      0.1113377
	      0.1113376
	      0.1108107
	      0.1011026
	      0.1009242
	      0.1321849
	      1.6547812
	      0.9233901
	      0.9401248
	      0.9811210
	      0.9293004
	      0.9292977
	      0.9811157
	      0.9401215
	      0.9233824
	      1.6547483
	      0.9233828
	      0.1122650
	      0.1304946
	      0.1920178
	      0.1473465
	      0.1473454
	      0.1920167
	      0.1304981
	      0.1122674
	      0.9233628
	      0.9401152
	      0.1304940
	      0.1545164
	      0.2432906
	      0.1927091
	      0.1927075
	      0.2432888
	      0.1545198
	      0.1304963
	      0.9400917
	      0.9811122
	      0.1920186
	      0.2432923
	      0.3544518
	      0.2998363
	      0.2998344
	      0.3544493
	      0.2432951
	      0.1920205
	      0.9810871
	      0.9292909
	      0.1473475
	      0.1927107
	      0.2998360
	      0.2380479
	      0.2380460
	      0.2998334
	      0.1927141
	      0.1473501
	      0.9292666
	      0.9292875
	      0.1473456
	      0.1927080
	      0.2998328
	      0.2380446
	      0.2380427
	      0.2998301
	      0.1927114
	      0.1473483
	      0.9292631
	      0.9811058
	      0.1920169
	      0.2432894
	      0.3544476
	      0.2998318
	      0.2998299
	      0.3544451
	      0.2432923
	      0.1920188
	      0.9810807
	      0.9401126
	      0.1304992
	      0.1545218
	      0.2432957
	      0.1927146
	      0.1927130
	      0.2432939
	      0.1545252
	      0.1305015
	      0.9400891
	      0.9233736
	      0.1122681
	      0.1304974
	      0.1920207
	      0.1473503
	      0.1473492
	      0.1920196
	      0.1305009
	      0.1122705
	      0.9233537
	      1.6547356
	      0.9233540
	      0.9400828
	      0.9810772
	      0.9292563
	      0.9292537
	      0.9810719
	      0.9400796
	      0.9233463
	      1.6547028
