# vtk DataFile Version 3.0
test_file
ASCII
DATASET POLYDATA
POINTS 1000 float
   0.12500 	   -0.00000 	    0.00000
   0.12500 	   -0.00000 	    1.00000
   0.12500 	    0.00000 	    2.00000
   0.12500 	    0.00000 	    3.00000
   0.12500 	    0.00000 	    4.00000
   0.12500 	    0.00000 	    5.00000
   0.12500 	    0.00000 	    6.00000
   0.12500 	    0.00000 	    7.00000
   0.12500 	   -0.00000 	    8.00000
   0.12500 	    0.00000 	    9.00000
   0.12500 	    1.00000 	    0.00000
   0.12500 	    1.00000 	    1.00000
   0.12500 	    1.00000 	    2.00000
   0.12500 	    1.00000 	    3.00000
   0.12500 	    1.00000 	    4.00000
   0.12500 	    1.00000 	    5.00000
   0.12500 	    1.00000 	    6.00000
   0.12500 	    1.00000 	    7.00000
   0.12500 	    1.00000 	    8.00000
   0.12500 	    1.00000 	    9.00000
   0.12500 	    2.00000 	    0.00000
   0.12500 	    2.00000 	    1.00000
   0.12500 	    2.00000 	    2.00000
   0.12500 	    2.00000 	    3.00000
   0.12500 	    2.00000 	    4.00000
   0.12500 	    2.00000 	    5.00000
   0.12500 	    2.00000 	    6.00000
   0.12500 	    2.00000 	    7.00000
   0.12500 	    2.00000 	    8.00000
   0.12500 	    2.00000 	    9.00000
   0.12500 	    3.00000 	    0.00000
   0.12500 	    3.00000 	    1.00000
   0.12500 	    3.00000 	    2.00000
   0.12500 	    3.00000 	    3.00000
   0.12500 	    3.00000 	    4.00000
   0.12500 	    3.00000 	    5.00000
   0.12500 	    3.00000 	    6.00000
   0.12500 	    3.00000 	    7.00000
   0.12500 	    3.00000 	    8.00000
   0.12500 	    3.00000 	    9.00000
   0.12500 	    4.00000 	    0.00000
   0.12500 	    4.00000 	    1.00000
   0.12500 	    4.00000 	    2.00000
   0.12500 	    4.00000 	    3.00000
   0.12500 	    4.00000 	    4.00000
   0.12500 	    4.00000 	    5.00000
   0.12500 	    4.00000 	    6.00000
   0.12500 	    4.00000 	    7.00000
   0.12500 	    4.00000 	    8.00000
   0.12500 	    4.00000 	    9.00000
   0.12500 	    5.00000 	    0.00000
   0.12500 	    5.00000 	    1.00000
   0.12500 	    5.00000 	    2.00000
   0.12500 	    5.00000 	    3.00000
   0.12500 	    5.00000 	    4.00000
   0.12500 	    5.00000 	    5.00000
   0.12500 	    5.00000 	    6.00000
   0.12500 	    5.00000 	    7.00000
   0.12500 	    5.00000 	    8.00000
   0.12500 	    5.00000 	    9.00000
   0.12500 	    6.00000 	    0.00000
   0.12500 	    6.00000 	    1.00000
   0.12500 	    6.00000 	    2.00000
   0.12500 	    6.00000 	    3.00000
   0.12500 	    6.00000 	    4.00000
   0.12500 	    6.00000 	    5.00000
   0.12500 	    6.00000 	    6.00000
   0.12500 	    6.00000 	    7.00000
   0.12500 	    6.00000 	    8.00000
   0.12500 	    6.00000 	    9.00000
   0.12500 	    7.00000 	    0.00000
   0.12500 	    7.00000 	    1.00000
   0.12500 	    7.00000 	    2.00000
   0.12500 	    7.00000 	    3.00000
   0.12500 	    7.00000 	    4.00000
   0.12500 	    7.00000 	    5.00000
   0.12500 	    7.00000 	    6.00000
   0.12500 	    7.00000 	    7.00000
   0.12500 	    7.00000 	    8.00000
   0.12500 	    7.00000 	    9.00000
   0.12500 	    8.00000 	    0.00000
   0.12500 	    8.00000 	    1.00000
   0.12500 	    8.00000 	    2.00000
   0.12500 	    8.00000 	    3.00000
   0.12500 	    8.00000 	    4.00000
   0.12500 	    8.00000 	    5.00000
   0.12500 	    8.00000 	    6.00000
   0.12500 	    8.00000 	    7.00000
   0.12500 	    8.00000 	    8.00000
   0.12500 	    8.00000 	    9.00000
   0.12500 	    9.00000 	    0.00000
   0.12500 	    9.00000 	    1.00000
   0.12500 	    9.00000 	    2.00000
   0.12500 	    9.00000 	    3.00000
   0.12500 	    9.00000 	    4.00000
   0.12500 	    9.00000 	    5.00000
   0.12500 	    9.00000 	    6.00000
   0.12500 	    9.00000 	    7.00000
   0.12500 	    9.00000 	    8.00000
   0.12500 	    9.00000 	    9.00000
   1.11731 	   -0.02213 	   -0.02213
   1.11720 	   -0.02407 	    0.98606
   1.11668 	   -0.02488 	    1.99294
   1.11682 	   -0.02589 	    2.99466
   1.11651 	   -0.02621 	    3.99784
   1.11651 	   -0.02621 	    5.00215
   1.11682 	   -0.02589 	    6.00534
   1.11668 	   -0.02488 	    7.00706
   1.11720 	   -0.02407 	    8.01394
   1.11731 	   -0.02213 	    9.02213
   1.11720 	    0.98606 	   -0.02407
   1.11887 	    0.98175 	    0.98175
   1.11822 	    0.98118 	    1.99314
   1.11869 	    0.98053 	    2.99246
   1.11877 	    0.98060 	    3.99632
   1.11877 	    0.98060 	    5.00368
   1.11869 	    0.98053 	    6.00754
   1.11822 	    0.98118 	    7.00685
   1.11887 	    0.98175 	    8.01825
   1.11720 	    0.98606 	    9.02407
   1.11668 	    1.99294 	   -0.02488
   1.11822 	    1.99314 	    0.98118
   1.11642 	    1.99311 	    1.99311
   1.11594 	    1.99281 	    2.99141
   1.11654 	    1.99246 	    3.99588
   1.11654 	    1.99246 	    5.00412
   1.11594 	    1.99281 	    6.00859
   1.11642 	    1.99311 	    7.00689
   1.11822 	    1.99314 	    8.01882
   1.11668 	    1.99294 	    9.02488
   1.11682 	    2.99466 	   -0.02589
   1.11869 	    2.99246 	    0.98053
   1.11594 	    2.99140 	    1.99281
   1.11500 	    2.99085 	    2.99085
   1.11570 	    2.99036 	    3.99574
   1.11570 	    2.99036 	    5.00426
   1.11500 	    2.99085 	    6.00915
   1.11594 	    2.99141 	    7.00718
   1.11869 	    2.99246 	    8.01947
   1.11682 	    2.99466 	    9.02589
   1.11651 	    3.99784 	   -0.02621
   1.11877 	    3.99632 	    0.98060
   1.11654 	    3.99588 	    1.99246
   1.11570 	    3.99574 	    2.99036
   1.11661 	    3.99558 	    3.99558
   1.11661 	    3.99558 	    5.00442
   1.11570 	    3.99574 	    6.00964
   1.11654 	    3.99588 	    7.00754
   1.11877 	    3.99632 	    8.01940
   1.11651 	    3.99784 	    9.02621
   1.11651 	    5.00215 	   -0.02621
   1.11877 	    5.00368 	    0.98060
   1.11654 	    5.00412 	    1.99246
   1.11570 	    5.00426 	    2.99036
   1.11661 	    5.00442 	    3.99558
   1.11661 	    5.00442 	    5.00442
   1.11570 	    5.00426 	    6.00964
   1.11654 	    5.00412 	    7.00754
   1.11877 	    5.00368 	    8.01940
   1.11651 	    5.00215 	    9.02621
   1.11682 	    6.00534 	   -0.02589
   1.11869 	    6.00754 	    0.98053
   1.11594 	    6.00859 	    1.99281
   1.11500 	    6.00915 	    2.99085
   1.11570 	    6.00964 	    3.99574
   1.11570 	    6.00964 	    5.00426
   1.11500 	    6.00915 	    6.00915
   1.11594 	    6.00859 	    7.00718
   1.11869 	    6.00754 	    8.01946
   1.11682 	    6.00534 	    9.02589
   1.11668 	    7.00706 	   -0.02488
   1.11822 	    7.00685 	    0.98118
   1.11642 	    7.00689 	    1.99311
   1.11594 	    7.00718 	    2.99141
   1.11654 	    7.00754 	    3.99588
   1.11654 	    7.00754 	    5.00412
   1.11594 	    7.00718 	    6.00859
   1.11642 	    7.00689 	    7.00689
   1.11822 	    7.00685 	    8.01882
   1.11668 	    7.00706 	    9.02488
   1.11720 	    8.01394 	   -0.02407
   1.11887 	    8.01825 	    0.98175
   1.11822 	    8.01882 	    1.99314
   1.11869 	    8.01946 	    2.99246
   1.11877 	    8.01940 	    3.99632
   1.11877 	    8.01940 	    5.00368
   1.11869 	    8.01946 	    6.00754
   1.11822 	    8.01882 	    7.00685
   1.11887 	    8.01825 	    8.01825
   1.11720 	    8.01394 	    9.02407
   1.11731 	    9.02213 	   -0.02213
   1.11720 	    9.02407 	    0.98606
   1.11668 	    9.02488 	    1.99294
   1.11682 	    9.02589 	    2.99466
   1.11651 	    9.02621 	    3.99784
   1.11651 	    9.02621 	    5.00215
   1.11682 	    9.02589 	    6.00534
   1.11668 	    9.02488 	    7.00706
   1.11720 	    9.02407 	    8.01394
   1.11731 	    9.02213 	    9.02213
   2.09520 	   -0.02998 	   -0.02998
   2.09993 	   -0.03192 	    0.97651
   2.10102 	   -0.03420 	    1.98446
   2.10067 	   -0.03606 	    2.99049
   2.10033 	   -0.03699 	    3.99686
   2.10033 	   -0.03699 	    5.00314
   2.10067 	   -0.03606 	    6.00951
   2.10102 	   -0.03420 	    7.01554
   2.09993 	   -0.03192 	    8.02349
   2.09520 	   -0.02998 	    9.02998
   2.09993 	    0.97651 	   -0.03192
   2.11414 	    0.97350 	    0.97350
   2.11826 	    0.96923 	    1.98620
   2.11662 	    0.96713 	    2.99142
   2.11609 	    0.96630 	    3.99725
   2.11609 	    0.96630 	    5.00275
   2.11662 	    0.96713 	    6.00858
   2.11826 	    0.96923 	    7.01380
   2.11414 	    0.97350 	    8.02650
   2.09993 	    0.97651 	    9.03192
   2.10102 	    1.98446 	   -0.03420
   2.11826 	    1.98620 	    0.96923
   2.12186 	    1.98573 	    1.98573
   2.11853 	    1.98335 	    2.99224
   2.11796 	    1.98249 	    3.99765
   2.11796 	    1.98249 	    5.00235
   2.11853 	    1.98335 	    6.00776
   2.12186 	    1.98573 	    7.01427
   2.11826 	    1.98620 	    8.03077
   2.10102 	    1.98446 	    9.03420
   2.10067 	    2.99049 	   -0.03606
   2.11662 	    2.99142 	    0.96713
   2.11853 	    2.99224 	    1.98335
   2.11411 	    2.99123 	    2.99123
   2.11341 	    2.99100 	    3.99745
   2.11341 	    2.99100 	    5.00255
   2.11411 	    2.99123 	    6.00877
   2.11853 	    2.99224 	    7.01665
   2.11662 	    2.99142 	    8.03286
   2.10067 	    2.99049 	    9.03606
   2.10033 	    3.99686 	   -0.03699
   2.11609 	    3.99725 	    0.96630
   2.11796 	    3.99765 	    1.98249
   2.11341 	    3.99745 	    2.99100
   2.11281 	    3.99746 	    3.99746
   2.11281 	    3.99746 	    5.00254
   2.11341 	    3.99745 	    6.00900
   2.11796 	    3.99765 	    7.01751
   2.11609 	    3.99725 	    8.03370
   2.10033 	    3.99686 	    9.03698
   2.10033 	    5.00314 	   -0.03699
   2.11609 	    5.00275 	    0.96630
   2.11796 	    5.00235 	    1.98249
   2.11341 	    5.00255 	    2.99100
   2.11281 	    5.00254 	    3.99746
   2.11281 	    5.00254 	    5.00254
   2.11341 	    5.00255 	    6.00900
   2.11796 	    5.00235 	    7.01751
   2.11609 	    5.00275 	    8.03370
   2.10033 	    5.00314 	    9.03698
   2.10067 	    6.00951 	   -0.03606
   2.11662 	    6.00858 	    0.96713
   2.11853 	    6.00776 	    1.98335
   2.11411 	    6.00876 	    2.99123
   2.11341 	    6.00900 	    3.99745
   2.11341 	    6.00900 	    5.00255
   2.11411 	    6.00876 	    6.00877
   2.11853 	    6.00776 	    7.01665
[...]
POINT_DATA 1000
SCALARS C float
LOOKUP_TABLE default
	      0.6515777
	      0.3825942
	      0.3481234
	      0.3598786
	      0.3593779
	      0.3593760
	      0.3598760
	      0.3481211
	      0.3825874
	      0.6515600
	      0.3825914
	      0.1446185
	      0.1160997
	      0.1255594
	      0.1247683
	      0.1247668
	      0.1255585
	      0.1161004
	      0.1446161
	      0.3825799
	      0.3481191
	      0.1160988
	      0.0919727
	      0.1067141
	      0.1071667
	      0.1071651
	      0.1067135
	      0.0919743
	      0.1160971
	      0.3481075
	      0.3598740
	      0.1255587
	      0.1067145
	      0.1267909
	      0.1283568
	      0.1283550
	      0.1267900
	      0.1067161
	      0.1255569
	      0.3598617
	      0.3593732
	      0.1247676
	      0.1071672
	      0.1283570
	      0.1295751
	      0.1295732
	      0.1283559
	      0.1071688
	      0.1247657
	      0.3593605
	      0.3593708
	      0.1247657
	      0.1071650
	      0.1283544
	      0.1295724
	      0.1295705
	      0.1283533
	      0.1071666
	      0.1247638
	      0.3593582
	      0.3598712
	      0.1255575
	      0.1067135
	      0.1267896
	      0.1283552
	      0.1283534
	      0.1267887
	      0.1067152
	      0.1255557
	      0.3598589
	      0.3481168
	      0.1160996
	      0.0919746
	      0.1067162
	      0.1071687
	      0.1071671
	      0.1067156
	      0.0919762
	      0.1160979
	      0.3481052
	      0.3825825
	      0.1446145
	      0.1160963
	      0.1255559
	      0.1247645
	      0.1247631
	      0.1255549
	      0.1160970
	      0.1446121
	      0.3825710
	      0.6515530
	      0.3825750
	      0.3481032
	      0.3598569
	      0.3593553
	      0.3593534
	      0.3598543
	      0.3481009
	      0.3825682
	      0.6515353
	      0.0625481
	      0.0465278
	      0.0463157
	      0.0508190
	      0.0499692
	      0.0499690
	      0.0508186
	      0.0463156
	      0.0465277
	      0.0625471
	      0.0465279
	      0.0438036
	      0.0445168
	      0.0530071
	      0.0539058
	      0.0539053
	      0.0530066
	      0.0445167
	      0.0438040
	      0.0465271
	      0.0463157
	      0.0445168
	      0.0378253
	      0.0435541
	      0.0462075
	      0.0462069
	      0.0435534
	      0.0378249
	      0.0445174
	      0.0463150
	      0.0508188
	      0.0530072
	      0.0435541
	      0.0496687
	      0.0538955
	      0.0538949
	      0.0496678
	      0.0435537
	      0.0530080
	      0.0508179
	      0.0499691
	      0.0539059
	      0.0462075
	      0.0538955
	      0.0595305
	      0.0595298
	      0.0538946
	      0.0462071
	      0.0539067
	      0.0499679
	      0.0499688
	      0.0539052
	      0.0462067
	      0.0538946
	      0.0595296
	      0.0595289
	      0.0538937
	      0.0462063
	      0.0539060
	      0.0499676
	      0.0508184
	      0.0530065
	      0.0435531
	      0.0496676
	      0.0538943
	      0.0538937
	      0.0496667
	      0.0435527
	      0.0530072
	      0.0508174
	      0.0463154
	      0.0445165
	      0.0378247
	      0.0435535
	      0.0462068
	      0.0462062
	      0.0435527
	      0.0378243
	      0.0445171
	      0.0463147
	      0.0465276
	      0.0438043
	      0.0445172
	      0.0530078
	      0.0539066
	      0.0539061
	      0.0530073
	      0.0445171
	      0.0438047
	      0.0465267
	      0.0625469
	      0.0465270
	      0.0463147
	      0.0508176
	      0.0499677
	      0.0499675
	      0.0508173
	      0.0463146
	      0.0465269
	      0.0625460
	      0.1307589
	      0.0965842
	      0.0882119
	      0.0870258
	      0.0856613
	      0.0856610
	      0.0870251
	      0.0882111
	      0.0965832
	      0.1307570
	      0.0965843
	      0.0693791
	      0.0647813
	      0.0632728
	      0.0636465
	      0.0636464
	      0.0632724
	      0.0647807
	      0.0693787
	      0.0965832
	      0.0882118
	      0.0647814
	      0.0757067
	      0.0723058
	      0.0726120
	      0.0726118
	      0.0723059
	      0.0757065
	      0.0647811
	      0.0882104
	      0.0870255
	      0.0632725
	      0.0723055
	      0.0672652
	      0.0678681
	      0.0678680
	      0.0672653
	      0.0723051
	      0.0632717
	      0.0870240
	      0.0856609
	      0.0636461
	      0.0726118
	      0.0678682
	      0.0697671
	      0.0697670
	      0.0678683
	      0.0726115
	      0.0636455
	      0.0856594
	      0.0856605
	      0.0636460
	      0.0726115
	      0.0678680
	      0.0697670
	      0.0697669
	      0.0678681
	      0.0726112
	      0.0636454
	      0.0856590
	      0.0870246
	      0.0632722
	      0.0723056
	      0.0672652
	      0.0678682
	      0.0678681
	      0.0672653
	      0.0723052
	      0.0632714
	      0.0870232
	      0.0882105
	      0.0647804
	      0.0757060
	      0.0723048
	      0.0726112
	      0.0726110
	      0.0723049
	      0.0757058
	      0.0647801
	      0.0882090
	      0.0965826
	      0.0693788
	      0.0647808
	      0.0632714
	      0.0636451
	      0.0636450
	      0.0632711
	      0.0647802
	      0.0693784
	      0.0965815
	      0.1307565
	      0.0965825
	      0.0882098
	      0.0870235
	      0.0856589
	      0.0856586
	      0.0870229
	      0.0882090
	      0.0965816
	      0.1307546
	      0.1252222
	      0.0988530
	      0.0942704
	      0.0937061
	      0.0932238
	      0.0932236
	      0.0937055
	      0.0942698
	      0.0988523
	      0.1252209
	      0.0988532
	      0.0793389
	      0.0722105
	      0.0696228
	      0.0713481
	      0.0713480
	      0.0696223
	      0.0722096
	      0.0793385
	      0.0988528
	      0.0942706
	      0.0722107
	      0.0819787
	      0.0796401
	      0.0821955
	      0.0821957
	      0.0796403
	      0.0819782
	      0.0722098
	      0.0942698
	      0.0937062
	      0.0696227
	      0.0796399
	      0.0751002
	      0.0776881
	      0.0776885
	      0.0751003
	      0.0796391
	      0.0696208
	      0.0937056
	      0.0932238
	      0.0713476
	      0.0821951
	      0.0776880
	      0.0815886
	      0.0815891
	      0.0776881
	      0.0821944
	      0.0713459
	      0.0932231
	      0.0932234
	      0.0713476
	      0.0821954
	      0.0776884
	      0.0815892
	      0.0815896
	      0.0776885
	      0.0821946
	      0.0713458
	      0.0932227
	      0.0937052
	      0.0696219
	      0.0796399
	      0.0751000
	      0.0776880
	      0.0776884
	      0.0751001
	      0.0796391
	      0.0696200
	      0.0937045
	      0.0942693
	      0.0722091
	      0.0819777
	      0.0796387
	      0.0821940
	      0.0821943
	      0.0796388
	      0.0819772
	      0.0722081
	      0.0942685
	      0.0988518
	      0.0793381
	      0.0722092
	      0.0696204
	      0.0713454
	      0.0713453
	      0.0696199
	      0.0722084
	      0.0793378
	      0.0988514
	      0.1252209
	      0.0988523
	      0.0942694
	      0.0937052
	      0.0932229
	      0.0932226
	      0.0937046
	      0.0942687
	      0.0988516
	      0.1252196
	      0.1040305
	      0.0850763
	      0.0838611
	      0.0857894
	      0.0861922
	      0.0861921
	      0.0857891
	      0.0838608
	      0.0850759
	      0.1040297
	      0.0850765
	      0.0748731
	      0.0791697
	      0.0820837
	      0.0851931
	      0.0851931
	      0.0820832
	      0.0791691
	      0.0748737
	      0.0850765
	      0.0838614
	      0.0791697
	      0.0711560
	      0.0750805
	      0.0804632
	      0.0804633
	      0.0750802
	      0.0711553
	      0.0791711
	      0.0838615
	      0.0857898
	      0.0820839
	      0.0750803
	      0.0781467
	      0.0839419
	      0.0839421
	      0.0781461
	      0.0750792
	      0.0820846
	      0.0857898
	      0.0861925
	      0.0851933
	      0.0804629
	      0.0839418
	      0.0910104
	      0.0910106
	      0.0839413
	      0.0804618
	      0.0851943
	      0.0861924
	      0.0861921
	      0.0851932
	      0.0804630
	      0.0839419
	      0.0910106
	      0.0910109
	      0.0839414
	      0.0804619
	      0.0851942
	      0.0861920
	      0.0857890
	      0.0820833
	      0.0750798
	      0.0781459
	      0.0839411
	      0.0839413
	      0.0781453
	      0.0750787
	      0.0820840
	      0.0857890
	      0.0838606
	      0.0791691
	      0.0711548
	      0.0750788
	      0.0804615
	      0.0804616
	      0.0750785
	      0.0711540
	      0.0791705
	      0.0838606
	      0.0850757
	      0.0748742
	      0.0791711
	      0.0820848
	      0.0851944
	      0.0851944
	      0.0820843
	      0.0791705
	      0.0748749
	      0.0850757
	      0.1040299
	      0.0850763
	      0.0838613
	      0.0857898
	      0.0861925
	      0.0861923
	      0.0857894
	      0.0838610
	      0.0850759
	      0.1040291
	      0.1032923
	      0.0841868
	      0.0819579
	      0.0830768
	      0.0834001
	      0.0834000
	      0.0830765
	      0.0819575
	      0.0841865
	      0.1032917
	      0.0841871
	      0.0648339
	      0.0659614
	      0.0670550
	      0.0694613
	      0.0694614
	      0.0670548
	      0.0659610
	      0.0648341
	      0.0841872
	      0.0819582
	      0.0659616
	      0.0691380
	      0.0729060
	      0.0765296
	      0.0765298
	      0.0729059
	      0.0691375
	      0.0659624
	      0.0819578
	      0.0830771
	      0.0670552
	      0.0729058
	      0.0762729
	      0.0800525
	      0.0800527
	      0.0762727
	      0.0729051
	      0.0670553
	      0.0830765
	      0.0834003
	      0.0694614
	      0.0765294
	      0.0800524
	      0.0848044
	      0.0848047
	      0.0800522
	      0.0765287
	      0.0694617
	      0.0833997
	      0.0834000
	      0.0694615
	      0.0765295
	      0.0800526
	      0.0848047
	      0.0848050
	      0.0800524
	      0.0765288
	      0.0694618
	      0.0833995
	      0.0830764
	      0.0670549
	      0.0729056
	      0.0762725
	      0.0800521
	      0.0800523
	      0.0762723
	      0.0729048
	      0.0670550
	      0.0830758
	      0.0819573
	      0.0659609
	      0.0691371
	      0.0729048
	      0.0765284
	      0.0765285
	      0.0729046
	      0.0691366
	      0.0659617
	      0.0819569
	      0.0841862
	      0.0648344
	      0.0659623
	      0.0670554
	      0.0694617
	      0.0694618
	      0.0670552
	      0.0659619
	      0.0648345
	      0.0841863
	      0.1032921
	      0.0841869
	      0.0819576
	      0.0830764
	      0.0833998
	      0.0833997
	      0.0830762
	      0.0819573
	      0.0841866
	      0.1032914
	      0.1238678
	      0.0984530
	      0.0934380
	      0.0924170
	      0.0921526
	      0.0921525
	      0.0924165
	      0.0934374
	      0.0984523
	      0.1238667
	      0.0984533
	      0.0748706
	      0.0694682
	      0.0657284
	      0.0663326
	      0.0663327
	      0.0657283
	      0.0694675
	      0.0748700
	      0.0984529
	      0.0934382
	      0.0694684
	      0.0800719
	      0.0786821
	      0.0784354
	      0.0784355
	      0.0786822
	      0.0800714
	      0.0694676
	      0.0934372
	      0.0924170
	      0.0657282
	      0.0786819
	      0.0761870
	      0.0754538
	      0.0754540
	      0.0761871
	      0.0786813
	      0.0657265
	      0.0924160
	      0.0921525
	      0.0663322
	      0.0784350
	      0.0754537
	      0.0752678
	      0.0752680
	      0.0754538
	      0.0784344
	      0.0663305
	      0.0921516
	      0.0921523
	      0.0663323
	      0.0784351
	      0.0754539
	      0.0752680
	      0.0752683
	      0.0754540
	      0.0784345
	      0.0663306
	      0.0921514
	      0.0924162
	      0.0657279
	      0.0786818
	      0.0761868
	      0.0754537
	      0.0754539
	      0.0761870
	      0.0786812
	      0.0657262
	      0.0924151
	      0.0934369
	      0.0694670
	      0.0800709
	      0.0786809
	      0.0784341
	      0.0784342
	      0.0786810
	      0.0800705
	      0.0694661
	      0.0934359
	      0.0984518
	      0.0748697
	      0.0694670
	      0.0657261
	      0.0663301
	      0.0663301
	      0.0657260
	      0.0694663
	      0.0748691
	      0.0984515
	      0.1238667
	      0.0984524
	      0.0934367
	      0.0924157
	      0.0921514
	      0.0921513
	      0.0924152
	      0.0934361
	      0.0984517
	      0.1238656
	      0.1292938
	      0.0973049
	      0.0899923
	      0.0894495
	      0.0887710
	      0.0887708
	      0.0894490
	      0.0899916
	      0.0973039
	      0.1292919
	      0.0973050
	      0.0783347
	      0.0762361
	      0.0750673
	      0.0748254
	      0.0748253
	      0.0750669
	      0.0762354
	      0.0783344
	      0.0973038
	      0.0899923
	      0.0762360
	      0.0759427
	      0.0742856
	      0.0734776
	      0.0734774
	      0.0742854
	      0.0759424
	      0.0762362
	      0.0899909
	      0.0894493
	      0.0750669
	      0.0742853
	      0.0720507
	      0.0710502
	      0.0710500
	      0.0720506
	      0.0742850
	      0.0750666
	      0.0894479
	      0.0887707
	      0.0748251
	      0.0734774
	      0.0710502
	      0.0704997
	      0.0704995
	      0.0710501
	      0.0734770
	      0.0748248
	      0.0887694
	      0.0887704
	      0.0748250
	      0.0734771
	      0.0710498
	      0.0704994
	      0.0704992
	      0.0710497
	      0.0734767
	      0.0748247
	      0.0887691
	      0.0894485
	      0.0750667
	      0.0742851
	      0.0720504
	      0.0710499
	      0.0710497
	      0.0720503
	      0.0742847
	      0.0750664
	      0.0894471
	      0.0899910
	      0.0762351
	      0.0759420
	      0.0742846
	      0.0734768
	      0.0734765
	      0.0742845
	      0.0759416
	      0.0762353
	      0.0899896
	      0.0973033
	      0.0783347
	      0.0762359
	      0.0750664
	      0.0748246
	      0.0748244
	      0.0750660
	      0.0762353
	      0.0783345
	      0.0973021
	      0.1292914
	      0.0973032
	      0.0899903
	      0.0894474
	      0.0887690
	      0.0887687
	      0.0894468
	      0.0899895
	      0.0973022
	      0.1292895
	      0.0624835
	      0.0456912
	      0.0452933
	      0.0503098
	      0.0505009
	      0.0505007
	      0.0503095
	      0.0452933
	      0.0456911
	      0.0624826
	      0.0456913
	      0.0402608
	      0.0392132
	      0.0460666
	      0.0476533
	      0.0476529
	      0.0460661
	      0.0392131
	      0.0402611
	      0.0456907
	      0.0452933
	      0.0392132
	      0.0353153
	      0.0414251
	      0.0435242
	      0.0435237
	      0.0414245
	      0.0353151
	      0.0392134
	      0.0452925
	      0.0503097
	      0.0460665
	      0.0414251
	      0.0471679
	      0.0498879
	      0.0498873
	      0.0471671
	      0.0414249
	      0.0460668
	      0.0503086
	      0.0505009
	      0.0476533
	      0.0435242
	      0.0498879
	      0.0534714
	      0.0534708
	      0.0498870
	      0.0435240
	      0.0476536
	      0.0504997
	      0.0505006
	      0.0476527
	      0.0435235
	      0.0498871
	      0.0534706
	      0.0534700
	      0.0498862
	      0.0435233
	      0.0476530
	      0.0504994
	      0.0503093
	      0.0460658
	      0.0414242
	      0.0471669
	      0.0498868
	      0.0498862
	      0.0471661
	      0.0414240
	      0.0460661
	      0.0503082
	      0.0452931
	      0.0392130
	      0.0353149
	      0.0414247
	      0.0435238
	      0.0435233
	      0.0414240
	      0.0353147
	      0.0392132
	      0.0452923
	      0.0456910
	      0.0402612
	      0.0392132
	      0.0460666
	      0.0476534
	      0.0476530
	      0.0460661
	      0.0392132
	      0.0402615
	      0.0456904
	      0.0624826
	      0.0456906
	      0.0452923
	      0.0503083
	      0.0504996
	      0.0504994
	      0.0503080
	      0.0452922
	      0.0456905
	      0.0624817
	      0.6307742
	      0.3736990
	      0.3313874
	      0.3373131
	      0.3387295
	      0.3387281
	      0.3373107
	      0.3313847
	      0.3736923
	      0.6307568
	      0.3736964
	      0.1545685
	      0.1201737
	      0.1247543
	      0.1256626
	      0.1256617
	      0.1247536
	      0.1201738
	      0.1545660
	      0.3736852
	      0.3313832
	      0.1201728
	      0.0899354
	      0.0992668
	      0.1017017
	      0.1017007
	      0.0992663
	      0.0899363
	      0.1201711
	      0.3313721
	      0.3373085
	      0.1247534
	      0.0992670
	      0.1139297
	      0.1178498
	      0.1178486
	      0.1139291
	      0.0992679
	      0.1247517
	      0.3372967
	      0.3387248
	      0.1256618
	      0.1017020
	      0.1178498
	      0.1217487
	      0.1217474
	      0.1178491
	      0.1017029
	      0.1256600
	      0.3387125
	      0.3387230
	      0.1256606
	      0.1017006
	      0.1178482
	      0.1217469
	      0.1217457
	      0.1178474
	      0.1017015
	      0.1256587
	      0.3387108
	      0.3373060
	      0.1247525
	      0.0992663
	      0.1139288
	      0.1178486
	      0.1178475
	      0.1139282
	      0.0992673
	      0.1247509
	      0.3372942
	      0.3313804
	      0.1201729
	      0.0899364
	      0.0992679
	      0.1017027
	      0.1017017
	      0.0992674
	      0.0899373
	      0.1201713
	      0.3313693
	      0.3736876
	      0.1545644
	      0.1201703
	      0.1247507
	      0.1256588
	      0.1256579
	      0.1247500
	      0.1201704
	      0.1545620
	      0.3736764
	      0.6307499
	      0.3736805
	      0.3313679
	      0.3372920
	      0.3387075
	      0.3387060
	      0.3372896
	      0.3313652
	      0.3736737
	      0.6307326
