# vtk DataFile Version 3.0
test_file
ASCII
DATASET POLYDATA
POINTS 1000 float
   0.85000 	   -0.00000 	    0.00000
   0.85000 	   -0.00000 	    1.00000
   0.85000 	    0.00000 	    2.00000
   0.85000 	    0.00000 	    3.00000
   0.85000 	    0.00000 	    4.00000
   0.85000 	    0.00000 	    5.00000
   0.85000 	    0.00000 	    6.00000
   0.85000 	    0.00000 	    7.00000
   0.85000 	   -0.00000 	    8.00000
   0.85000 	    0.00000 	    9.00000
   0.85000 	    1.00000 	    0.00000
   0.85000 	    1.00000 	    1.00000
   0.85000 	    1.00000 	    2.00000
   0.85000 	    1.00000 	    3.00000
   0.85000 	    1.00000 	    4.00000
   0.85000 	    1.00000 	    5.00000
   0.85000 	    1.00000 	    6.00000
   0.85000 	    1.00000 	    7.00000
   0.85000 	    1.00000 	    8.00000
   0.85000 	    1.00000 	    9.00000
   0.85000 	    2.00000 	    0.00000
   0.85000 	    2.00000 	    1.00000
   0.85000 	    2.00000 	    2.00000
   0.85000 	    2.00000 	    3.00000
   0.85000 	    2.00000 	    4.00000
   0.85000 	    2.00000 	    5.00000
   0.85000 	    2.00000 	    6.00000
   0.85000 	    2.00000 	    7.00000
   0.85000 	    2.00000 	    8.00000
   0.85000 	    2.00000 	    9.00000
   0.85000 	    3.00000 	    0.00000
   0.85000 	    3.00000 	    1.00000
   0.85000 	    3.00000 	    2.00000
   0.85000 	    3.00000 	    3.00000
   0.85000 	    3.00000 	    4.00000
   0.85000 	    3.00000 	    5.00000
   0.85000 	    3.00000 	    6.00000
   0.85000 	    3.00000 	    7.00000
   0.85000 	    3.00000 	    8.00000
   0.85000 	    3.00000 	    9.00000
   0.85000 	    4.00000 	    0.00000
   0.85000 	    4.00000 	    1.00000
   0.85000 	    4.00000 	    2.00000
   0.85000 	    4.00000 	    3.00000
   0.85000 	    4.00000 	    4.00000
   0.85000 	    4.00000 	    5.00000
   0.85000 	    4.00000 	    6.00000
   0.85000 	    4.00000 	    7.00000
   0.85000 	    4.00000 	    8.00000
   0.85000 	    4.00000 	    9.00000
   0.85000 	    5.00000 	    0.00000
   0.85000 	    5.00000 	    1.00000
   0.85000 	    5.00000 	    2.00000
   0.85000 	    5.00000 	    3.00000
   0.85000 	    5.00000 	    4.00000
   0.85000 	    5.00000 	    5.00000
   0.85000 	    5.00000 	    6.00000
   0.85000 	    5.00000 	    7.00000
   0.85000 	    5.00000 	    8.00000
   0.85000 	    5.00000 	    9.00000
   0.85000 	    6.00000 	    0.00000
   0.85000 	    6.00000 	    1.00000
   0.85000 	    6.00000 	    2.00000
   0.85000 	    6.00000 	    3.00000
   0.85000 	    6.00000 	    4.00000
   0.85000 	    6.00000 	    5.00000
   0.85000 	    6.00000 	    6.00000
   0.85000 	    6.00000 	    7.00000
   0.85000 	    6.00000 	    8.00000
   0.85000 	    6.00000 	    9.00000
   0.85000 	    7.00000 	    0.00000
   0.85000 	    7.00000 	    1.00000
   0.85000 	    7.00000 	    2.00000
   0.85000 	    7.00000 	    3.00000
   0.85000 	    7.00000 	    4.00000
   0.85000 	    7.00000 	    5.00000
   0.85000 	    7.00000 	    6.00000
   0.85000 	    7.00000 	    7.00000
   0.85000 	    7.00000 	    8.00000
   0.85000 	    7.00000 	    9.00000
   0.85000 	    8.00000 	    0.00000
   0.85000 	    8.00000 	    1.00000
   0.85000 	    8.00000 	    2.00000
   0.85000 	    8.00000 	    3.00000
   0.85000 	    8.00000 	    4.00000
   0.85000 	    8.00000 	    5.00000
   0.85000 	    8.00000 	    6.00000
   0.85000 	    8.00000 	    7.00000
   0.85000 	    8.00000 	    8.00000
   0.85000 	    8.00000 	    9.00000
   0.85000 	    9.00000 	    0.00000
   0.85000 	    9.00000 	    1.00000
   0.85000 	    9.00000 	    2.00000
   0.85000 	    9.00000 	    3.00000
   0.85000 	    9.00000 	    4.00000
   0.85000 	    9.00000 	    5.00000
   0.85000 	    9.00000 	    6.00000
   0.85000 	    9.00000 	    7.00000
   0.85000 	    9.00000 	    8.00000
   0.85000 	    9.00000 	    9.00000
   1.86494 	   -0.15845 	   -0.15845
   1.85308 	   -0.17111 	    0.91555
   1.85092 	   -0.17125 	    1.95438
   1.85729 	   -0.17637 	    2.96367
   1.85290 	   -0.17584 	    3.98635
   1.85290 	   -0.17584 	    5.01365
   1.85729 	   -0.17637 	    6.03633
   1.85092 	   -0.17125 	    7.04562
   1.85308 	   -0.17111 	    8.08445
   1.86494 	   -0.15844 	    9.15845
   1.85308 	    0.91555 	   -0.17111
   1.82617 	    0.88643 	    0.88643
   1.81501 	    0.89746 	    1.94088
   1.81846 	    0.89318 	    2.94438
   1.81682 	    0.89712 	    3.97857
   1.81682 	    0.89712 	    5.02142
   1.81846 	    0.89318 	    6.05561
   1.81501 	    0.89746 	    7.05912
   1.82617 	    0.88643 	    8.11357
   1.85308 	    0.91555 	    9.17110
   1.85092 	    1.95438 	   -0.17125
   1.81501 	    1.94088 	    0.89746
   1.82096 	    1.94488 	    1.94488
   1.82070 	    1.94514 	    2.93448
   1.82268 	    1.94584 	    3.97472
   1.82268 	    1.94584 	    5.02527
   1.82070 	    1.94514 	    6.06551
   1.82096 	    1.94488 	    7.05511
   1.81501 	    1.94088 	    8.10253
   1.85092 	    1.95438 	    9.17124
   1.85729 	    2.96367 	   -0.17637
   1.81846 	    2.94438 	    0.89318
   1.82070 	    2.93448 	    1.94514
   1.81825 	    2.93280 	    2.93280
   1.82016 	    2.93218 	    3.97439
   1.82016 	    2.93218 	    5.02560
   1.81825 	    2.93280 	    6.06719
   1.82070 	    2.93448 	    7.05485
   1.81846 	    2.94438 	    8.10681
   1.85729 	    2.96367 	    9.17636
   1.85290 	    3.98635 	   -0.17583
   1.81682 	    3.97857 	    0.89712
   1.82268 	    3.97472 	    1.94584
   1.82016 	    3.97439 	    2.93218
   1.82195 	    3.97433 	    3.97433
   1.82195 	    3.97433 	    5.02566
   1.82016 	    3.97439 	    6.06781
   1.82268 	    3.97472 	    7.05415
   1.81682 	    3.97857 	    8.10287
   1.85290 	    3.98635 	    9.17583
   1.85290 	    5.01365 	   -0.17583
   1.81682 	    5.02142 	    0.89712
   1.82268 	    5.02527 	    1.94584
   1.82016 	    5.02559 	    2.93218
   1.82195 	    5.02566 	    3.97433
   1.82195 	    5.02566 	    5.02566
   1.82016 	    5.02559 	    6.06781
   1.82268 	    5.02527 	    7.05415
   1.81682 	    5.02142 	    8.10287
   1.85290 	    5.01365 	    9.17583
   1.85729 	    6.03633 	   -0.17637
   1.81846 	    6.05561 	    0.89318
   1.82070 	    6.06551 	    1.94514
   1.81825 	    6.06718 	    2.93280
   1.82016 	    6.06781 	    3.97439
   1.82016 	    6.06781 	    5.02560
   1.81825 	    6.06718 	    6.06719
   1.82070 	    6.06550 	    7.05485
   1.81846 	    6.05561 	    8.10681
   1.85729 	    6.03633 	    9.17636
   1.85092 	    7.04562 	   -0.17125
   1.81501 	    7.05911 	    0.89746
   1.82096 	    7.05511 	    1.94488
   1.82070 	    7.05485 	    2.93448
   1.82268 	    7.05415 	    3.97472
   1.82268 	    7.05415 	    5.02527
   1.82070 	    7.05485 	    6.06551
   1.82096 	    7.05511 	    7.05511
   1.81501 	    7.05911 	    8.10253
   1.85092 	    7.04561 	    9.17124
   1.85308 	    8.08445 	   -0.17110
   1.82616 	    8.11356 	    0.88643
   1.81501 	    8.10253 	    1.94088
   1.81846 	    8.10681 	    2.94438
   1.81682 	    8.10287 	    3.97857
   1.81682 	    8.10287 	    5.02142
   1.81846 	    8.10681 	    6.05561
   1.81501 	    8.10253 	    7.05911
   1.82616 	    8.11356 	    8.11356
   1.85308 	    8.08444 	    9.17110
   1.86494 	    9.15844 	   -0.15844
   1.85308 	    9.17110 	    0.91555
   1.85092 	    9.17124 	    1.95438
   1.85729 	    9.17636 	    2.96367
   1.85290 	    9.17582 	    3.98635
   1.85290 	    9.17582 	    5.01365
   1.85729 	    9.17636 	    6.03633
   1.85092 	    9.17124 	    7.04561
   1.85308 	    9.17110 	    8.08444
   1.86494 	    9.15844 	    9.15844
   2.65922 	   -0.22920 	   -0.22920
   2.69444 	   -0.24098 	    0.83016
   2.70596 	   -0.24938 	    1.88789
   2.70605 	   -0.25781 	    2.93117
   2.70246 	   -0.26272 	    3.97747
   2.70246 	   -0.26271 	    5.02252
   2.70606 	   -0.25780 	    6.06882
   2.70596 	   -0.24938 	    7.11210
   2.69444 	   -0.24097 	    8.16983
   2.65922 	   -0.22920 	    9.22920
   2.69444 	    0.83016 	   -0.24097
   2.77040 	    0.81033 	    0.81033
   2.79495 	    0.79974 	    1.89497
   2.79497 	    0.79270 	    2.93725
   2.78969 	    0.78490 	    3.98017
   2.78969 	    0.78490 	    5.01982
   2.79498 	    0.79270 	    6.06274
   2.79495 	    0.79974 	    7.10503
   2.77040 	    0.81033 	    8.18966
   2.69444 	    0.83017 	    9.24097
   2.70596 	    1.88789 	   -0.24938
   2.79495 	    1.89496 	    0.79974
   2.80746 	    1.89419 	    1.89419
   2.80003 	    1.89193 	    2.93840
   2.78827 	    1.88329 	    3.97983
   2.78827 	    1.88329 	    5.02016
   2.80003 	    1.89193 	    6.06159
   2.80746 	    1.89419 	    7.10580
   2.79495 	    1.89497 	    8.20025
   2.70596 	    1.88789 	    9.24937
   2.70606 	    2.93117 	   -0.25780
   2.79498 	    2.93725 	    0.79271
   2.80003 	    2.93840 	    1.89193
   2.79091 	    2.93546 	    2.93546
   2.77790 	    2.93273 	    3.97832
   2.77789 	    2.93273 	    5.02167
   2.79091 	    2.93546 	    6.06453
   2.80003 	    2.93840 	    7.10806
   2.79498 	    2.93725 	    8.20728
   2.70606 	    2.93117 	    9.25779
   2.70246 	    3.97747 	   -0.26271
   2.78969 	    3.98017 	    0.78490
   2.78827 	    3.97982 	    1.88329
   2.77790 	    3.97832 	    2.93273
   2.76407 	    3.97720 	    3.97721
   2.76407 	    3.97720 	    5.02278
   2.77789 	    3.97832 	    6.06726
   2.78827 	    3.97982 	    7.11670
   2.78969 	    3.98017 	    8.21508
   2.70246 	    3.97747 	    9.26270
   2.70246 	    5.02252 	   -0.26271
   2.78969 	    5.01982 	    0.78490
   2.78827 	    5.02016 	    1.88329
   2.77789 	    5.02166 	    2.93273
   2.76407 	    5.02278 	    3.97721
   2.76407 	    5.02278 	    5.02278
   2.77789 	    5.02166 	    6.06726
   2.78827 	    5.02016 	    7.11670
   2.78969 	    5.01982 	    8.21508
   2.70246 	    5.02252 	    9.26270
   2.70606 	    6.06882 	   -0.25780
   2.79498 	    6.06274 	    0.79271
   2.80003 	    6.06159 	    1.89193
   2.79091 	    6.06453 	    2.93546
   2.77789 	    6.06726 	    3.97832
   2.77789 	    6.06726 	    5.02167
   2.79091 	    6.06453 	    6.06453
   2.80003 	    6.06158 	    7.10806
[...]
POINT_DATA 1000
SCALARS C float
LOOKUP_TABLE default
	      1.2817694
	      0.7268580
	      0.7326736
	      0.7618568
	      0.7233518
	      0.7233487
	      0.7618515
	      0.7326722
	      0.7268509
	      1.2817404
	      0.7268515
	      0.1162158
	      0.1238597
	      0.1656518
	      0.1341693
	      0.1341675
	      0.1656498
	      0.1238636
	      0.1162162
	      0.7268336
	      0.7326653
	      0.1238593
	      0.1350990
	      0.1959519
	      0.1606733
	      0.1606711
	      0.1959491
	      0.1351028
	      0.1238615
	      0.7326439
	      0.7618490
	      0.1656528
	      0.1959536
	      0.2734253
	      0.2357321
	      0.2357297
	      0.2734217
	      0.1959567
	      0.1656548
	      0.7618266
	      0.7233434
	      0.1341700
	      0.1606747
	      0.2357318
	      0.1932298
	      0.1932276
	      0.2357285
	      0.1606780
	      0.1341725
	      0.7233214
	      0.7233395
	      0.1341672
	      0.1606714
	      0.2357280
	      0.1932262
	      0.1932240
	      0.2357246
	      0.1606746
	      0.1341697
	      0.7233176
	      0.7618431
	      0.1656497
	      0.1959495
	      0.2734200
	      0.2357268
	      0.2357244
	      0.2734164
	      0.1959526
	      0.1656517
	      0.7618206
	      0.7326646
	      0.1238645
	      0.1351048
	      0.1959571
	      0.1606782
	      0.1606761
	      0.1959544
	      0.1351087
	      0.1238667
	      0.7326433
	      0.7268429
	      0.1162160
	      0.1238624
	      0.1656546
	      0.1341722
	      0.1341703
	      0.1656526
	      0.1238663
	      0.1162164
	      0.7268250
	      1.2817303
	      0.7268256
	      0.7326364
	      0.7618181
	      0.7233123
	      0.7233091
	      0.7618129
	      0.7326350
	      0.7268185
	      1.2817012
	      0.1000632
	      0.0769990
	      0.0772041
	      0.0846307
	      0.0854348
	      0.0854348
	      0.0846307
	      0.0772040
	      0.0769986
	      0.1000626
	      0.0769992
	      0.0847450
	      0.0862808
	      0.1013701
	      0.1006000
	      0.1005997
	      0.1013703
	      0.0862801
	      0.0847446
	      0.0769982
	      0.0772039
	      0.0862804
	      0.0719926
	      0.0861498
	      0.0828993
	      0.0828987
	      0.0861504
	      0.0719918
	      0.0862801
	      0.0772025
	      0.0846303
	      0.1013695
	      0.0861494
	      0.1015696
	      0.0983639
	      0.0983632
	      0.1015701
	      0.0861486
	      0.1013691
	      0.0846284
	      0.0854345
	      0.1005995
	      0.0828991
	      0.0983641
	      0.0947814
	      0.0947805
	      0.0983645
	      0.0828983
	      0.1005991
	      0.0854327
	      0.0854345
	      0.1005993
	      0.0828984
	      0.0983631
	      0.0947802
	      0.0947794
	      0.0983635
	      0.0828976
	      0.1005988
	      0.0854326
	      0.0846303
	      0.1013698
	      0.0861502
	      0.1015701
	      0.0983643
	      0.0983636
	      0.1015706
	      0.0861494
	      0.1013695
	      0.0846284
	      0.0772035
	      0.0862795
	      0.0719913
	      0.0861484
	      0.0828980
	      0.0828975
	      0.0861490
	      0.0719905
	      0.0862792
	      0.0772022
	      0.0769983
	      0.0847446
	      0.0862795
	      0.1013686
	      0.1005986
	      0.1005984
	      0.1013688
	      0.0862789
	      0.0847442
	      0.0769974
	      0.1000628
	      0.0769979
	      0.0772021
	      0.0846280
	      0.0854323
	      0.0854323
	      0.0846279
	      0.0772019
	      0.0769975
	      0.1000621
	      0.2238377
	      0.1651578
	      0.1502749
	      0.1490095
	      0.1481479
	      0.1481478
	      0.1490092
	      0.1502741
	      0.1651563
	      0.2238355
	      0.1651578
	      0.1342776
	      0.1270934
	      0.1268853
	      0.1262448
	      0.1262445
	      0.1268848
	      0.1270926
	      0.1342762
	      0.1651575
	      0.1502749
	      0.1270930
	      0.1155631
	      0.1096365
	      0.1174358
	      0.1174364
	      0.1096372
	      0.1155606
	      0.1270913
	      0.1502744
	      0.1490094
	      0.1268845
	      0.1096359
	      0.1020557
	      0.1107196
	      0.1107192
	      0.1020562
	      0.1096340
	      0.1268826
	      0.1490086
	      0.1481477
	      0.1262441
	      0.1174352
	      0.1107196
	      0.1213854
	      0.1213860
	      0.1107205
	      0.1174329
	      0.1262421
	      0.1481469
	      0.1481475
	      0.1262437
	      0.1174357
	      0.1107192
	      0.1213857
	      0.1213863
	      0.1107201
	      0.1174334
	      0.1262417
	      0.1481467
	      0.1490088
	      0.1268841
	      0.1096366
	      0.1020566
	      0.1107205
	      0.1107200
	      0.1020570
	      0.1096347
	      0.1268821
	      0.1490080
	      0.1502735
	      0.1270917
	      0.1155591
	      0.1096334
	      0.1174322
	      0.1174328
	      0.1096341
	      0.1155566
	      0.1270901
	      0.1502730
	      0.1651557
	      0.1342762
	      0.1270905
	      0.1268819
	      0.1262413
	      0.1262410
	      0.1268814
	      0.1270896
	      0.1342749
	      0.1651554
	      0.2238353
	      0.1651569
	      0.1502738
	      0.1490083
	      0.1481466
	      0.1481465
	      0.1490079
	      0.1502730
	      0.1651555
	      0.2238332
	      0.2107751
	      0.1678870
	      0.1597082
	      0.1590368
	      0.1591097
	      0.1591095
	      0.1590364
	      0.1597074
	      0.1678858
	      0.2107737
	      0.1678875
	      0.1375133
	      0.1329480
	      0.1299736
	      0.1291297
	      0.1291294
	      0.1299730
	      0.1329472
	      0.1375136
	      0.1678872
	      0.1597086
	      0.1329483
	      0.1691653
	      0.1634597
	      0.1786180
	      0.1786174
	      0.1634600
	      0.1691645
	      0.1329491
	      0.1597077
	      0.1590370
	      0.1299739
	      0.1634591
	      0.1430563
	      0.1577690
	      0.1577675
	      0.1430560
	      0.1634581
	      0.1299739
	      0.1590359
	      0.1591097
	      0.1291297
	      0.1786173
	      0.1577689
	      0.1761358
	      0.1761349
	      0.1577688
	      0.1786163
	      0.1291297
	      0.1591085
	      0.1591094
	      0.1291293
	      0.1786167
	      0.1577671
	      0.1761342
	      0.1761333
	      0.1577670
	      0.1786157
	      0.1291293
	      0.1591082
	      0.1590361
	      0.1299729
	      0.1634593
	      0.1430561
	      0.1577685
	      0.1577670
	      0.1430557
	      0.1634583
	      0.1299730
	      0.1590350
	      0.1597069
	      0.1329470
	      0.1691634
	      0.1634574
	      0.1786155
	      0.1786150
	      0.1634578
	      0.1691626
	      0.1329478
	      0.1597061
	      0.1678852
	      0.1375139
	      0.1329489
	      0.1299738
	      0.1291297
	      0.1291294
	      0.1299732
	      0.1329481
	      0.1375141
	      0.1678849
	      0.2107736
	      0.1678866
	      0.1597072
	      0.1590356
	      0.1591084
	      0.1591083
	      0.1590352
	      0.1597065
	      0.1678854
	      0.2107722
	      0.1681813
	      0.1447764
	      0.1432051
	      0.1458603
	      0.1466293
	      0.1466292
	      0.1458599
	      0.1432047
	      0.1447758
	      0.1681811
	      0.1447771
	      0.1169629
	      0.1175843
	      0.1177001
	      0.1168218
	      0.1168215
	      0.1176995
	      0.1175839
	      0.1169638
	      0.1447779
	      0.1432059
	      0.1175849
	      0.1476216
	      0.1441194
	      0.1581211
	      0.1581226
	      0.1441198
	      0.1476187
	      0.1175867
	      0.1432062
	      0.1458610
	      0.1177008
	      0.1441185
	      0.1227773
	      0.1364413
	      0.1364426
	      0.1227769
	      0.1441146
	      0.1177024
	      0.1458609
	      0.1466298
	      0.1168223
	      0.1581198
	      0.1364413
	      0.1547065
	      0.1547072
	      0.1364411
	      0.1581174
	      0.1168238
	      0.1466297
	      0.1466295
	      0.1168220
	      0.1581216
	      0.1364427
	      0.1547077
	      0.1547084
	      0.1364424
	      0.1581192
	      0.1168236
	      0.1466294
	      0.1458600
	      0.1177000
	      0.1441188
	      0.1227768
	      0.1364412
	      0.1364425
	      0.1227764
	      0.1441149
	      0.1177016
	      0.1458600
	      0.1432046
	      0.1175841
	      0.1476172
	      0.1441136
	      0.1581164
	      0.1581179
	      0.1441139
	      0.1476143
	      0.1175860
	      0.1432048
	      0.1447757
	      0.1169645
	      0.1175870
	      0.1177029
	      0.1168244
	      0.1168241
	      0.1177023
	      0.1175865
	      0.1169654
	      0.1447765
	      0.1681818
	      0.1447778
	      0.1432061
	      0.1458611
	      0.1466301
	      0.1466299
	      0.1458607
	      0.1432056
	      0.1447772
	      0.1681817
	      0.1682293
	      0.1447981
	      0.1431993
	      0.1458537
	      0.1466606
	      0.1466604
	      0.1458534
	      0.1431989
	      0.1447976
	      0.1682292
	      0.1447988
	      0.1170115
	      0.1174393
	      0.1174461
	      0.1166154
	      0.1166151
	      0.1174456
	      0.1174387
	      0.1170121
	      0.1447997
	      0.1432001
	      0.1174398
	      0.1470792
	      0.1441469
	      0.1575006
	      0.1575009
	      0.1441474
	      0.1470781
	      0.1174412
	      0.1432003
	      0.1458545
	      0.1174468
	      0.1441462
	      0.1239310
	      0.1373724
	      0.1373725
	      0.1239308
	      0.1441445
	      0.1174476
	      0.1458543
	      0.1466611
	      0.1166158
	      0.1574997
	      0.1373725
	      0.1560235
	      0.1560234
	      0.1373726
	      0.1574992
	      0.1166166
	      0.1466609
	      0.1466608
	      0.1166155
	      0.1575002
	      0.1373724
	      0.1560234
	      0.1560234
	      0.1373725
	      0.1574997
	      0.1166163
	      0.1466606
	      0.1458535
	      0.1174459
	      0.1441469
	      0.1239306
	      0.1373725
	      0.1373726
	      0.1239304
	      0.1441453
	      0.1174467
	      0.1458534
	      0.1431988
	      0.1174387
	      0.1470769
	      0.1441440
	      0.1574985
	      0.1574989
	      0.1441446
	      0.1470757
	      0.1174400
	      0.1431990
	      0.1447975
	      0.1170125
	      0.1174412
	      0.1174479
	      0.1166170
	      0.1166167
	      0.1174473
	      0.1174406
	      0.1170132
	      0.1447985
	      0.1682300
	      0.1447996
	      0.1432003
	      0.1458545
	      0.1466613
	      0.1466611
	      0.1458541
	      0.1431998
	      0.1447991
	      0.1682299
	      0.2109433
	      0.1680075
	      0.1598279
	      0.1591540
	      0.1592560
	      0.1592558
	      0.1591536
	      0.1598272
	      0.1680065
	      0.2109420
	      0.1680079
	      0.1376340
	      0.1331441
	      0.1302305
	      0.1294749
	      0.1294746
	      0.1302298
	      0.1331432
	      0.1376339
	      0.1680077
	      0.1598283
	      0.1331443
	      0.1676890
	      0.1629394
	      0.1775731
	      0.1775727
	      0.1629395
	      0.1676881
	      0.1331443
	      0.1598272
	      0.1591543
	      0.1302307
	      0.1629387
	      0.1438616
	      0.1580031
	      0.1580017
	      0.1438607
	      0.1629379
	      0.1302300
	      0.1591528
	      0.1592560
	      0.1294747
	      0.1775724
	      0.1580029
	      0.1760184
	      0.1760179
	      0.1580024
	      0.1775713
	      0.1294739
	      0.1592545
	      0.1592557
	      0.1294743
	      0.1775723
	      0.1580014
	      0.1760173
	      0.1760167
	      0.1580009
	      0.1775712
	      0.1294735
	      0.1592542
	      0.1591533
	      0.1302296
	      0.1629388
	      0.1438606
	      0.1580022
	      0.1580007
	      0.1438597
	      0.1629380
	      0.1302288
	      0.1591518
	      0.1598266
	      0.1331428
	      0.1676870
	      0.1629372
	      0.1775709
	      0.1775706
	      0.1629373
	      0.1676861
	      0.1331427
	      0.1598256
	      0.1680059
	      0.1376339
	      0.1331439
	      0.1302297
	      0.1294736
	      0.1294733
	      0.1302291
	      0.1331430
	      0.1376338
	      0.1680057
	      0.2109420
	      0.1680071
	      0.1598267
	      0.1591525
	      0.1592544
	      0.1592542
	      0.1591521
	      0.1598260
	      0.1680061
	      0.2109407
	      0.2242399
	      0.1654391
	      0.1506027
	      0.1493418
	      0.1484427
	      0.1484425
	      0.1493412
	      0.1506019
	      0.1654378
	      0.2242374
	      0.1654392
	      0.1343636
	      0.1273633
	      0.1272987
	      0.1266725
	      0.1266722
	      0.1272980
	      0.1273628
	      0.1343631
	      0.1654378
	      0.1506026
	      0.1273632
	      0.1158206
	      0.1101662
	      0.1172592
	      0.1172607
	      0.1101666
	      0.1158189
	      0.1273640
	      0.1506006
	      0.1493414
	      0.1272984
	      0.1101657
	      0.1029597
	      0.1102187
	      0.1102191
	      0.1029594
	      0.1101641
	      0.1272994
	      0.1493392
	      0.1484422
	      0.1266722
	      0.1172586
	      0.1102184
	      0.1189718
	      0.1189731
	      0.1102184
	      0.1172566
	      0.1266732
	      0.1484399
	      0.1484419
	      0.1266718
	      0.1172604
	      0.1102192
	      0.1189731
	      0.1189744
	      0.1102192
	      0.1172584
	      0.1266729
	      0.1484396
	      0.1493406
	      0.1272977
	      0.1101659
	      0.1029594
	      0.1102185
	      0.1102189
	      0.1029591
	      0.1101642
	      0.1272988
	      0.1493384
	      0.1506012
	      0.1273624
	      0.1158182
	      0.1101634
	      0.1172563
	      0.1172578
	      0.1101638
	      0.1158165
	      0.1273633
	      0.1505992
	      0.1654369
	      0.1343635
	      0.1273637
	      0.1272991
	      0.1266729
	      0.1266726
	      0.1272985
	      0.1273632
	      0.1343629
	      0.1654355
	      0.2242367
	      0.1654369
	      0.1505999
	      0.1493386
	      0.1484394
	      0.1484392
	      0.1493380
	      0.1505991
	      0.1654356
	      0.2242343
	      0.1005525
	      0.0772988
	      0.0775050
	      0.0849428
	      0.0857201
	      0.0857200
	      0.0849426
	      0.0775049
	      0.0772986
	      0.1005518
	      0.0772989
	      0.0845758
	      0.0859508
	      0.1010220
	      0.1002272
	      0.1002269
	      0.1010214
	      0.0859504
	      0.0845751
	      0.0772987
	      0.0775049
	      0.0859503
	      0.0715894
	      0.0857565
	      0.0827339
	      0.0827332
	      0.0857557
	      0.0715891
	      0.0859492
	      0.0775043
	      0.0849426
	      0.1010214
	      0.0857565
	      0.1015441
	      0.0989464
	      0.0989456
	      0.1015432
	      0.0857563
	      0.1010199
	      0.0849415
	      0.0857198
	      0.1002266
	      0.0827339
	      0.0989464
	      0.0962815
	      0.0962806
	      0.0989456
	      0.0827338
	      0.1002250
	      0.0857186
	      0.0857197
	      0.1002262
	      0.0827329
	      0.0989452
	      0.0962803
	      0.0962795
	      0.0989444
	      0.0827328
	      0.1002246
	      0.0857185
	      0.0849424
	      0.1010206
	      0.0857553
	      0.1015428
	      0.0989452
	      0.0989443
	      0.1015419
	      0.0857551
	      0.1010191
	      0.0849412
	      0.0775047
	      0.0859497
	      0.0715888
	      0.0857560
	      0.0827335
	      0.0827328
	      0.0857552
	      0.0715885
	      0.0859486
	      0.0775041
	      0.0772986
	      0.0845749
	      0.0859485
	      0.1010191
	      0.1002243
	      0.1002240
	      0.1010185
	      0.0859482
	      0.0845742
	      0.0772983
	      0.1005522
	      0.0772986
	      0.0775041
	      0.0849412
	      0.0857184
	      0.0857183
	      0.0849410
	      0.0775040
	      0.0772985
	      0.1005515
	      1.2821875
	      0.7269486
	      0.7325925
	      0.7621636
	      0.7233869
	      0.7233848
	      0.7621592
	      0.7325890
	      0.7269409
	      1.2821593
	      0.7269427
	      0.1170929
	      0.1241538
	      0.1659436
	      0.1342142
	      0.1342136
	      0.1659429
	      0.1241561
	      0.1170938
	      0.7269254
	      0.7325845
	      0.1241532
	      0.1348561
	      0.1961028
	      0.1603909
	      0.1603900
	      0.1961017
	      0.1348583
	      0.1241543
	      0.7325643
	      0.7621559
	      0.1659439
	      0.1961039
	      0.2743594
	      0.2360725
	      0.2360713
	      0.2743575
	      0.1961056
	      0.1659447
	      0.7621346
	      0.7233787
	      0.1342146
	      0.1603920
	      0.2360723
	      0.1927319
	      0.1927308
	      0.2360707
	      0.1603941
	      0.1342159
	      0.7233578
	      0.7233760
	      0.1342134
	      0.1603903
	      0.2360702
	      0.1927299
	      0.1927288
	      0.2360685
	      0.1603924
	      0.1342147
	      0.7233551
	      0.7621508
	      0.1659427
	      0.1961020
	      0.2743564
	      0.2360696
	      0.2360684
	      0.2743545
	      0.1961037
	      0.1659436
	      0.7621294
	      0.7325814
	      0.1241565
	      0.1348595
	      0.1961059
	      0.1603944
	      0.1603935
	      0.1961048
	      0.1348617
	      0.1241575
	      0.7325612
	      0.7269331
	      0.1170940
	      0.1241547
	      0.1659445
	      0.1342157
	      0.1342151
	      0.1659439
	      0.1241569
	      0.1170949
	      0.7269159
	      1.2821486
	      0.7269177
	      0.7325567
	      0.7621262
	      0.7233490
	      0.7233469
	      0.7621217
	      0.7325532
	      0.7269099
	      1.2821204
