# vtk DataFile Version 3.0
test_file
ASCII
DATASET POLYDATA
POINTS 1000 float
   1.20000 	   -0.00000 	    0.00000
   1.20000 	   -0.00000 	    1.00000
   1.20000 	    0.00000 	    2.00000
   1.20000 	    0.00000 	    3.00000
   1.20000 	    0.00000 	    4.00000
   1.20000 	    0.00000 	    5.00000
   1.20000 	    0.00000 	    6.00000
   1.20000 	    0.00000 	    7.00000
   1.20000 	   -0.00000 	    8.00000
   1.20000 	    0.00000 	    9.00000
   1.20000 	    1.00000 	    0.00000
   1.20000 	    1.00000 	    1.00000
   1.20000 	    1.00000 	    2.00000
   1.20000 	    1.00000 	    3.00000
   1.20000 	    1.00000 	    4.00000
   1.20000 	    1.00000 	    5.00000
   1.20000 	    1.00000 	    6.00000
   1.20000 	    1.00000 	    7.00000
   1.20000 	    1.00000 	    8.00000
   1.20000 	    1.00000 	    9.00000
   1.20000 	    2.00000 	    0.00000
   1.20000 	    2.00000 	    1.00000
   1.20000 	    2.00000 	    2.00000
   1.20000 	    2.00000 	    3.00000
   1.20000 	    2.00000 	    4.00000
   1.20000 	    2.00000 	    5.00000
   1.20000 	    2.00000 	    6.00000
   1.20000 	    2.00000 	    7.00000
   1.20000 	    2.00000 	    8.00000
   1.20000 	    2.00000 	    9.00000
   1.20000 	    3.00000 	    0.00000
   1.20000 	    3.00000 	    1.00000
   1.20000 	    3.00000 	    2.00000
   1.20000 	    3.00000 	    3.00000
   1.20000 	    3.00000 	    4.00000
   1.20000 	    3.00000 	    5.00000
   1.20000 	    3.00000 	    6.00000
   1.20000 	    3.00000 	    7.00000
   1.20000 	    3.00000 	    8.00000
   1.20000 	    3.00000 	    9.00000
   1.20000 	    4.00000 	    0.00000
   1.20000 	    4.00000 	    1.00000
   1.20000 	    4.00000 	    2.00000
   1.20000 	    4.00000 	    3.00000
   1.20000 	    4.00000 	    4.00000
   1.20000 	    4.00000 	    5.00000
   1.20000 	    4.00000 	    6.00000
   1.20000 	    4.00000 	    7.00000
   1.20000 	    4.00000 	    8.00000
   1.20000 	    4.00000 	    9.00000
   1.20000 	    5.00000 	    0.00000
   1.20000 	    5.00000 	    1.00000
   1.20000 	    5.00000 	    2.00000
   1.20000 	    5.00000 	    3.00000
   1.20000 	    5.00000 	    4.00000
   1.20000 	    5.00000 	    5.00000
   1.20000 	    5.00000 	    6.00000
   1.20000 	    5.00000 	    7.00000
   1.20000 	    5.00000 	    8.00000
   1.20000 	    5.00000 	    9.00000
   1.20000 	    6.00000 	    0.00000
   1.20000 	    6.00000 	    1.00000
   1.20000 	    6.00000 	    2.00000
   1.20000 	    6.00000 	    3.00000
   1.20000 	    6.00000 	    4.00000
   1.20000 	    6.00000 	    5.00000
   1.20000 	    6.00000 	    6.00000
   1.20000 	    6.00000 	    7.00000
   1.20000 	    6.00000 	    8.00000
   1.20000 	    6.00000 	    9.00000
   1.20000 	    7.00000 	    0.00000
   1.20000 	    7.00000 	    1.00000
   1.20000 	    7.00000 	    2.00000
   1.20000 	    7.00000 	    3.00000
   1.20000 	    7.00000 	    4.00000
   1.20000 	    7.00000 	    5.00000
   1.20000 	    7.00000 	    6.00000
   1.20000 	    7.00000 	    7.00000
   1.20000 	    7.00000 	    8.00000
   1.20000 	    7.00000 	    9.00000
   1.20000 	    8.00000 	    0.00000
   1.20000 	    8.00000 	    1.00000
   1.20000 	    8.00000 	    2.00000
   1.20000 	    8.00000 	    3.00000
   1.20000 	    8.00000 	    4.00000
   1.20000 	    8.00000 	    5.00000
   1.20000 	    8.00000 	    6.00000
   1.20000 	    8.00000 	    7.00000
   1.20000 	    8.00000 	    8.00000
   1.20000 	    8.00000 	    9.00000
   1.20000 	    9.00000 	    0.00000
   1.20000 	    9.00000 	    1.00000
   1.20000 	    9.00000 	    2.00000
   1.20000 	    9.00000 	    3.00000
   1.20000 	    9.00000 	    4.00000
   1.20000 	    9.00000 	    5.00000
   1.20000 	    9.00000 	    6.00000
   1.20000 	    9.00000 	    7.00000
   1.20000 	    9.00000 	    8.00000
   1.20000 	    9.00000 	    9.00000
   2.22087 	   -0.23640 	   -0.23641
   2.20652 	   -0.25501 	    0.87856
   2.20521 	   -0.25422 	    1.93338
   2.21386 	   -0.26158 	    2.94725
   2.20728 	   -0.26050 	    3.98032
   2.20728 	   -0.26050 	    5.01968
   2.21386 	   -0.26158 	    6.05274
   2.20521 	   -0.25422 	    7.06662
   2.20651 	   -0.25501 	    8.12143
   2.22087 	   -0.23640 	    9.23640
   2.20652 	    0.87856 	   -0.25501
   2.16115 	    0.83842 	    0.83842
   2.15024 	    0.85417 	    1.91249
   2.15365 	    0.84944 	    2.92016
   2.15210 	    0.85366 	    3.96960
   2.15210 	    0.85366 	    5.03039
   2.15365 	    0.84944 	    6.07983
   2.15024 	    0.85417 	    7.08750
   2.16115 	    0.83842 	    8.16157
   2.20652 	    0.87857 	    9.25501
   2.20521 	    1.93338 	   -0.25422
   2.15024 	    1.91249 	    0.85417
   2.16206 	    1.91768 	    1.91768
   2.16110 	    1.91797 	    2.90697
   2.16353 	    1.91839 	    3.96422
   2.16353 	    1.91839 	    5.03577
   2.16110 	    1.91797 	    6.09301
   2.16206 	    1.91768 	    7.08231
   2.15023 	    1.91249 	    8.14581
   2.20521 	    1.93338 	    9.25421
   2.21386 	    2.94725 	   -0.26157
   2.15365 	    2.92016 	    0.84944
   2.16110 	    2.90697 	    1.91797
   2.15712 	    2.90472 	    2.90472
   2.15952 	    2.90372 	    3.96376
   2.15952 	    2.90372 	    5.03623
   2.15712 	    2.90472 	    6.09526
   2.16109 	    2.90697 	    7.08202
   2.15365 	    2.92016 	    8.15055
   2.21386 	    2.94725 	    9.26157
   2.20728 	    3.98032 	   -0.26050
   2.15210 	    3.96960 	    0.85367
   2.16353 	    3.96422 	    1.91839
   2.15952 	    3.96375 	    2.90372
   2.16180 	    3.96367 	    3.96368
   2.16180 	    3.96367 	    5.03631
   2.15952 	    3.96375 	    6.09627
   2.16353 	    3.96422 	    7.08160
   2.15210 	    3.96960 	    8.14633
   2.20728 	    3.98032 	    9.26049
   2.20728 	    5.01967 	   -0.26050
   2.15210 	    5.03038 	    0.85367
   2.16353 	    5.03576 	    1.91839
   2.15952 	    5.03623 	    2.90372
   2.16180 	    5.03630 	    3.96368
   2.16180 	    5.03630 	    5.03631
   2.15952 	    5.03623 	    6.09627
   2.16353 	    5.03576 	    7.08160
   2.15210 	    5.03038 	    8.14632
   2.20728 	    5.01967 	    9.26049
   2.21386 	    6.05274 	   -0.26157
   2.15365 	    6.07982 	    0.84944
   2.16110 	    6.09301 	    1.91797
   2.15712 	    6.09526 	    2.90472
   2.15952 	    6.09626 	    3.96376
   2.15952 	    6.09626 	    5.03623
   2.15712 	    6.09526 	    6.09526
   2.16110 	    6.09301 	    7.08202
   2.15365 	    6.07982 	    8.15055
   2.21386 	    6.05274 	    9.26156
   2.20521 	    7.06662 	   -0.25421
   2.15023 	    7.08750 	    0.85418
   2.16206 	    7.08231 	    1.91768
   2.16109 	    7.08202 	    2.90698
   2.16353 	    7.08160 	    3.96422
   2.16353 	    7.08160 	    5.03577
   2.16109 	    7.08202 	    6.09301
   2.16206 	    7.08231 	    7.08231
   2.15023 	    7.08750 	    8.14581
   2.20521 	    7.06661 	    9.25421
   2.20651 	    8.12143 	   -0.25501
   2.16115 	    8.16157 	    0.83843
   2.15023 	    8.14581 	    1.91249
   2.15365 	    8.15054 	    2.92017
   2.15210 	    8.14632 	    3.96960
   2.15210 	    8.14632 	    5.03039
   2.15365 	    8.15054 	    6.07982
   2.15023 	    8.14581 	    7.08750
   2.16115 	    8.16156 	    8.16157
   2.20651 	    8.12143 	    9.25500
   2.22087 	    9.23640 	   -0.23639
   2.20652 	    9.25500 	    0.87857
   2.20521 	    9.25421 	    1.93338
   2.21386 	    9.26156 	    2.94725
   2.20728 	    9.26049 	    3.98032
   2.20728 	    9.26049 	    5.01967
   2.21386 	    9.26156 	    6.05274
   2.20521 	    9.25420 	    7.06661
   2.20651 	    9.25500 	    8.12143
   2.22087 	    9.23639 	    9.23639
   2.92284 	   -0.33477 	   -0.33477
   2.97532 	   -0.35255 	    0.75206
   2.99359 	   -0.36445 	    1.83606
   2.99419 	   -0.37617 	    2.89969
   2.98903 	   -0.38306 	    3.96719
   2.98903 	   -0.38306 	    5.03280
   2.99419 	   -0.37617 	    6.10030
   2.99359 	   -0.36444 	    7.16393
   2.97532 	   -0.35255 	    8.24793
   2.92285 	   -0.33476 	    9.33476
   2.97532 	    0.75206 	   -0.35255
   3.07950 	    0.72284 	    0.72284
   3.11622 	    0.70927 	    1.84397
   3.11592 	    0.69956 	    2.90736
   3.10937 	    0.68813 	    3.97033
   3.10937 	    0.68813 	    5.02966
   3.11592 	    0.69957 	    6.09262
   3.11622 	    0.70927 	    7.15602
   3.07950 	    0.72284 	    8.27715
   2.97532 	    0.75207 	    9.35254
   2.99359 	    1.83606 	   -0.36444
   3.11622 	    1.84397 	    0.70927
   3.13992 	    1.84630 	    1.84631
   3.12859 	    1.84137 	    2.90864
   3.11222 	    1.82916 	    3.96787
   3.11222 	    1.82916 	    5.03211
   3.12859 	    1.84137 	    6.09135
   3.13992 	    1.84631 	    7.15368
   3.11622 	    1.84398 	    8.29072
   2.99359 	    1.83607 	    9.36443
   2.99419 	    2.89968 	   -0.37616
   3.11592 	    2.90736 	    0.69957
   3.12859 	    2.90864 	    1.84137
   3.11360 	    2.90605 	    2.90605
   3.09622 	    2.90034 	    3.96645
   3.09621 	    2.90034 	    5.03354
   3.11360 	    2.90605 	    6.09393
   3.12858 	    2.90864 	    7.15861
   3.11592 	    2.90736 	    8.30042
   2.99419 	    2.89969 	    9.37615
   2.98903 	    3.96719 	   -0.38305
   3.10937 	    3.97033 	    0.68814
   3.11222 	    3.96787 	    1.82916
   3.09621 	    3.96644 	    2.90034
   3.07697 	    3.96473 	    3.96473
   3.07697 	    3.96473 	    5.03525
   3.09621 	    3.96644 	    6.09964
   3.11222 	    3.96787 	    7.17083
   3.10938 	    3.97033 	    8.31185
   2.98903 	    3.96719 	    9.38304
   2.98903 	    5.03280 	   -0.38305
   3.10937 	    5.02966 	    0.68814
   3.11222 	    5.03211 	    1.82916
   3.09621 	    5.03354 	    2.90034
   3.07697 	    5.03525 	    3.96473
   3.07697 	    5.03525 	    5.03525
   3.09621 	    5.03354 	    6.09964
   3.11222 	    5.03211 	    7.17083
   3.10937 	    5.02966 	    8.31185
   2.98903 	    5.03279 	    9.38304
   2.99419 	    6.10030 	   -0.37616
   3.11592 	    6.09262 	    0.69957
   3.12859 	    6.09134 	    1.84137
   3.11360 	    6.09393 	    2.90605
   3.09621 	    6.09964 	    3.96645
   3.09621 	    6.09964 	    5.03354
   3.11360 	    6.09393 	    6.09393
   3.12858 	    6.09134 	    7.15862
[...]
POINT_DATA 1000
SCALARS C float
LOOKUP_TABLE default
	      1.6282894
	      0.9097502
	      0.9256933
	      0.9655938
	      0.9148291
	      0.9148252
	      0.9655872
	      0.9256927
	      0.9097440
	      1.6282553
	      0.9097422
	      0.1121683
	      0.1298580
	      0.1899627
	      0.1463340
	      0.1463316
	      0.1899597
	      0.1298633
	      0.1121706
	      0.9097205
	      0.9256834
	      0.1298579
	      0.1530334
	      0.2397387
	      0.1904053
	      0.1904023
	      0.2397345
	      0.1530388
	      0.1298622
	      0.9256574
	      0.9655848
	      0.1899644
	      0.2397411
	      0.3483798
	      0.2952330
	      0.2952299
	      0.3483749
	      0.2397457
	      0.1899686
	      0.9655572
	      0.9148192
	      0.1463353
	      0.1904073
	      0.2952326
	      0.2351934
	      0.2351904
	      0.2952278
	      0.1904120
	      0.1463399
	      0.9147924
	      0.9148143
	      0.1463318
	      0.1904027
	      0.2952275
	      0.2351884
	      0.2351854
	      0.2952227
	      0.1904074
	      0.1463364
	      0.9147875
	      0.9655770
	      0.1899600
	      0.2397351
	      0.3483724
	      0.2952254
	      0.2952224
	      0.3483675
	      0.2397397
	      0.1899642
	      0.9655494
	      0.9256838
	      0.1298651
	      0.1530417
	      0.2397462
	      0.1904124
	      0.1904094
	      0.2397421
	      0.1530471
	      0.1298694
	      0.9256579
	      0.9097348
	      0.1121711
	      0.1298640
	      0.1899689
	      0.1463401
	      0.1463377
	      0.1899659
	      0.1298693
	      0.1121734
	      0.9097132
	      1.6282435
	      0.9097113
	      0.9256486
	      0.9655470
	      0.9147815
	      0.9147775
	      0.9655404
	      0.9256479
	      0.9097051
	      1.6282093
	      0.1293970
	      0.0989052
	      0.0990783
	      0.1085815
	      0.1091049
	      0.1091048
	      0.1085815
	      0.0990780
	      0.0989044
	      0.1293962
	      0.0989053
	      0.1102459
	      0.1118040
	      0.1303789
	      0.1295217
	      0.1295214
	      0.1303793
	      0.1118033
	      0.1102453
	      0.0989037
	      0.0990779
	      0.1118035
	      0.0930158
	      0.1109432
	      0.1074933
	      0.1074931
	      0.1109447
	      0.0930152
	      0.1118030
	      0.0990760
	      0.1085809
	      0.1303781
	      0.1109429
	      0.1312743
	      0.1282438
	      0.1282435
	      0.1312758
	      0.1109424
	      0.1303776
	      0.1085784
	      0.1091044
	      0.1295212
	      0.1074934
	      0.1282442
	      0.1248710
	      0.1248707
	      0.1282459
	      0.1074931
	      0.1295205
	      0.1091020
	      0.1091044
	      0.1295209
	      0.1074930
	      0.1282437
	      0.1248705
	      0.1248702
	      0.1282454
	      0.1074928
	      0.1295202
	      0.1091020
	      0.1085809
	      0.1303788
	      0.1109448
	      0.1312764
	      0.1282462
	      0.1282458
	      0.1312780
	      0.1109444
	      0.1303782
	      0.1085785
	      0.0990773
	      0.1118025
	      0.0930147
	      0.1109425
	      0.1074930
	      0.1074928
	      0.1109440
	      0.0930141
	      0.1118020
	      0.0990754
	      0.0989039
	      0.1102451
	      0.1118022
	      0.1303771
	      0.1295200
	      0.1295197
	      0.1303775
	      0.1118015
	      0.1102444
	      0.0989023
	      0.1293964
	      0.0989033
	      0.0990753
	      0.1085778
	      0.1091015
	      0.1091015
	      0.1085778
	      0.0990750
	      0.0989025
	      0.1293957
	      0.2737483
	      0.2037242
	      0.1854714
	      0.1835443
	      0.1820761
	      0.1820760
	      0.1835439
	      0.1854705
	      0.2037225
	      0.2737464
	      0.2037243
	      0.1713364
	      0.1636814
	      0.1632211
	      0.1627342
	      0.1627342
	      0.1632207
	      0.1636803
	      0.1713347
	      0.2037245
	      0.1854715
	      0.1636808
	      0.1425323
	      0.1325877
	      0.1440311
	      0.1440309
	      0.1325878
	      0.1425289
	      0.1636779
	      0.1854716
	      0.1835443
	      0.1632201
	      0.1325866
	      0.1210097
	      0.1333683
	      0.1333677
	      0.1210098
	      0.1325838
	      0.1632170
	      0.1835443
	      0.1820761
	      0.1627331
	      0.1440299
	      0.1333681
	      0.1471290
	      0.1471284
	      0.1333681
	      0.1440265
	      0.1627297
	      0.1820760
	      0.1820759
	      0.1627331
	      0.1440302
	      0.1333676
	      0.1471275
	      0.1471269
	      0.1333675
	      0.1440268
	      0.1627298
	      0.1820758
	      0.1835437
	      0.1632196
	      0.1325866
	      0.1210098
	      0.1333679
	      0.1333674
	      0.1210100
	      0.1325837
	      0.1632165
	      0.1835436
	      0.1854701
	      0.1636790
	      0.1425273
	      0.1325825
	      0.1440259
	      0.1440256
	      0.1325826
	      0.1425240
	      0.1636762
	      0.1854702
	      0.2037221
	      0.1713344
	      0.1636767
	      0.1632159
	      0.1627287
	      0.1627287
	      0.1632155
	      0.1636756
	      0.1713327
	      0.2037223
	      0.2737465
	      0.2037240
	      0.1854712
	      0.1835441
	      0.1820759
	      0.1820758
	      0.1835437
	      0.1854703
	      0.2037224
	      0.2737447
	      0.2534529
	      0.2047801
	      0.1955000
	      0.1946041
	      0.1944359
	      0.1944358
	      0.1946037
	      0.1954991
	      0.2047788
	      0.2534517
	      0.2047807
	      0.1708381
	      0.1663151
	      0.1622664
	      0.1610636
	      0.1610635
	      0.1622662
	      0.1663144
	      0.1708386
	      0.2047809
	      0.1955006
	      0.1663155
	      0.2195315
	      0.2104182
	      0.2345403
	      0.2345394
	      0.2104187
	      0.2195295
	      0.1663164
	      0.1955001
	      0.1946046
	      0.1622668
	      0.2104171
	      0.1799071
	      0.2036801
	      0.2036791
	      0.1799084
	      0.2104165
	      0.1622676
	      0.1946038
	      0.1944362
	      0.1610639
	      0.2345394
	      0.2036806
	      0.2319399
	      0.2319383
	      0.2036816
	      0.2345384
	      0.1610642
	      0.1944353
	      0.1944359
	      0.1610636
	      0.2345386
	      0.2036792
	      0.2319376
	      0.2319360
	      0.2036801
	      0.2345376
	      0.1610638
	      0.1944350
	      0.1946036
	      0.1622661
	      0.2104180
	      0.1799085
	      0.2036817
	      0.2036806
	      0.1799098
	      0.2104174
	      0.1622669
	      0.1946029
	      0.1954988
	      0.1663143
	      0.2195286
	      0.2104158
	      0.2345376
	      0.2345367
	      0.2104162
	      0.2195266
	      0.1663152
	      0.1954983
	      0.2047783
	      0.1708391
	      0.1663163
	      0.1622675
	      0.1610643
	      0.1610641
	      0.1622673
	      0.1663156
	      0.1708395
	      0.2047784
	      0.2534517
	      0.2047804
	      0.1954998
	      0.1946038
	      0.1944354
	      0.1944353
	      0.1946033
	      0.1954989
	      0.2047790
	      0.2534505
	      0.1964921
	      0.1736886
	      0.1728502
	      0.1761972
	      0.1769426
	      0.1769425
	      0.1761968
	      0.1728498
	      0.1736880
	      0.1964922
	      0.1736895
	      0.1420471
	      0.1430047
	      0.1424069
	      0.1405794
	      0.1405790
	      0.1424067
	      0.1430045
	      0.1420486
	      0.1736909
	      0.1728513
	      0.1430056
	      0.1989083
	      0.1898638
	      0.2088639
	      0.2088643
	      0.1898638
	      0.1989041
	      0.1430080
	      0.1728519
	      0.1761982
	      0.1424080
	      0.1898622
	      0.1526499
	      0.1723135
	      0.1723146
	      0.1526507
	      0.1898585
	      0.1424101
	      0.1761984
	      0.1769434
	      0.1405803
	      0.2088624
	      0.1723138
	      0.1992035
	      0.1992039
	      0.1723134
	      0.2088587
	      0.1405824
	      0.1769434
	      0.1769430
	      0.1405797
	      0.2088627
	      0.1723146
	      0.1992040
	      0.1992043
	      0.1723141
	      0.2088590
	      0.1405819
	      0.1769430
	      0.1761971
	      0.1424072
	      0.1898628
	      0.1526505
	      0.1723134
	      0.1723145
	      0.1526513
	      0.1898592
	      0.1424094
	      0.1761973
	      0.1728498
	      0.1430046
	      0.1989024
	      0.1898575
	      0.2088571
	      0.2088575
	      0.1898575
	      0.1988982
	      0.1430070
	      0.1728504
	      0.1736879
	      0.1420493
	      0.1430082
	      0.1424107
	      0.1405832
	      0.1405828
	      0.1424105
	      0.1430080
	      0.1420508
	      0.1736893
	      0.1964930
	      0.1736908
	      0.1728520
	      0.1761987
	      0.1769440
	      0.1769438
	      0.1761983
	      0.1728515
	      0.1736902
	      0.1964930
	      0.1964903
	      0.1736912
	      0.1728580
	      0.1762053
	      0.1769460
	      0.1769458
	      0.1762048
	      0.1728576
	      0.1736907
	      0.1964905
	      0.1736921
	      0.1421062
	      0.1431768
	      0.1426448
	      0.1408498
	      0.1408493
	      0.1426445
	      0.1431766
	      0.1421076
	      0.1736936
	      0.1728591
	      0.1431777
	      0.1978352
	      0.1892577
	      0.2079544
	      0.2079555
	      0.1892576
	      0.1978323
	      0.1431794
	      0.1728596
	      0.1762063
	      0.1426459
	      0.1892562
	      0.1527974
	      0.1724097
	      0.1724117
	      0.1527982
	      0.1892542
	      0.1426474
	      0.1762064
	      0.1769468
	      0.1408505
	      0.2079530
	      0.1724099
	      0.1999265
	      0.1999280
	      0.1724096
	      0.2079511
	      0.1408518
	      0.1769467
	      0.1769463
	      0.1408499
	      0.2079546
	      0.1724120
	      0.1999285
	      0.1999300
	      0.1724118
	      0.2079527
	      0.1408511
	      0.1769463
	      0.1762052
	      0.1426449
	      0.1892567
	      0.1527980
	      0.1724100
	      0.1724119
	      0.1527989
	      0.1892547
	      0.1426464
	      0.1762052
	      0.1728577
	      0.1431767
	      0.1978314
	      0.1892533
	      0.2079502
	      0.2079513
	      0.1892532
	      0.1978284
	      0.1431784
	      0.1728582
	      0.1736907
	      0.1421079
	      0.1431795
	      0.1426478
	      0.1408523
	      0.1408519
	      0.1426474
	      0.1431794
	      0.1421093
	      0.1736922
	      0.1964914
	      0.1736936
	      0.1728598
	      0.1762068
	      0.1769473
	      0.1769471
	      0.1762063
	      0.1728593
	      0.1736931
	      0.1964916
	      0.2535466
	      0.2048531
	      0.1955801
	      0.1946787
	      0.1944926
	      0.1944923
	      0.1946781
	      0.1955793
	      0.2048521
	      0.2535456
	      0.2048538
	      0.1709539
	      0.1665426
	      0.1625546
	      0.1613922
	      0.1613920
	      0.1625542
	      0.1665417
	      0.1709540
	      0.2048540
	      0.1955807
	      0.1665431
	      0.2189338
	      0.2103903
	      0.2337638
	      0.2337627
	      0.2103893
	      0.2189326
	      0.1665441
	      0.1955799
	      0.1946791
	      0.1625551
	      0.2103892
	      0.1808483
	      0.2036130
	      0.2036119
	      0.1808471
	      0.2103889
	      0.1625561
	      0.1946778
	      0.1944928
	      0.1613924
	      0.2337631
	      0.2036130
	      0.2309666
	      0.2309652
	      0.2036113
	      0.2337624
	      0.1613930
	      0.1944913
	      0.1944923
	      0.1613921
	      0.2337621
	      0.2036115
	      0.2309643
	      0.2309629
	      0.2036098
	      0.2337614
	      0.1613926
	      0.1944909
	      0.1946779
	      0.1625541
	      0.2103885
	      0.1808463
	      0.2036109
	      0.2036098
	      0.1808452
	      0.2103882
	      0.1625551
	      0.1946766
	      0.1955789
	      0.1665415
	      0.2189318
	      0.2103881
	      0.2337618
	      0.2337607
	      0.2103870
	      0.2189306
	      0.1665424
	      0.1955780
	      0.2048516
	      0.1709543
	      0.1665438
	      0.1625560
	      0.1613930
	      0.1613929
	      0.1625556
	      0.1665430
	      0.1709544
	      0.2048518
	      0.2535458
	      0.2048535
	      0.1955795
	      0.1946776
	      0.1944914
	      0.1944911
	      0.1946770
	      0.1955786
	      0.2048524
	      0.2535448
	      0.2741255
	      0.2039654
	      0.1857178
	      0.1837956
	      0.1823164
	      0.1823162
	      0.1837950
	      0.1857169
	      0.2039639
	      0.2741231
	      0.2039656
	      0.1714416
	      0.1637593
	      0.1632877
	      0.1627830
	      0.1627830
	      0.1632871
	      0.1637585
	      0.1714407
	      0.2039642
	      0.1857177
	      0.1637591
	      0.1418000
	      0.1326770
	      0.1439982
	      0.1439990
	      0.1326776
	      0.1417981
	      0.1637588
	      0.1857157
	      0.1837953
	      0.1632872
	      0.1326761
	      0.1222006
	      0.1342736
	      0.1342749
	      0.1222014
	      0.1326740
	      0.1632867
	      0.1837931
	      0.1823160
	      0.1627823
	      0.1439972
	      0.1342736
	      0.1471639
	      0.1471651
	      0.1342742
	      0.1439946
	      0.1627819
	      0.1823137
	      0.1823157
	      0.1627823
	      0.1439988
	      0.1342753
	      0.1471649
	      0.1471661
	      0.1342759
	      0.1439962
	      0.1627819
	      0.1823134
	      0.1837944
	      0.1632864
	      0.1326769
	      0.1222015
	      0.1342746
	      0.1342760
	      0.1222023
	      0.1326748
	      0.1632859
	      0.1837922
	      0.1857161
	      0.1637578
	      0.1417972
	      0.1326733
	      0.1439943
	      0.1439952
	      0.1326739
	      0.1417953
	      0.1637575
	      0.1857141
	      0.2039631
	      0.1714409
	      0.1637582
	      0.1632860
	      0.1627813
	      0.1627813
	      0.1632854
	      0.1637574
	      0.1714401
	      0.2039616
	      0.2741225
	      0.2039633
	      0.1857149
	      0.1837925
	      0.1823132
	      0.1823131
	      0.1837919
	      0.1857141
	      0.2039619
	      0.2741201
	      0.1298166
	      0.0991367
	      0.0993152
	      0.1088473
	      0.1093825
	      0.1093824
	      0.1088470
	      0.0993151
	      0.0991364
	      0.1298155
	      0.0991368
	      0.1101948
	      0.1117494
	      0.1303187
	      0.1294276
	      0.1294272
	      0.1303180
	      0.1117491
	      0.1101938
	      0.0991363
	      0.0993150
	      0.1117489
	      0.0927865
	      0.1106503
	      0.1071274
	      0.1071268
	      0.1106494
	      0.0927862
	      0.1117475
	      0.0993142
	      0.1088469
	      0.1303180
	      0.1106504
	      0.1308468
	      0.1277994
	      0.1277985
	      0.1308458
	      0.1106504
	      0.1303164
	      0.1088457
	      0.1093822
	      0.1294270
	      0.1071276
	      0.1277994
	      0.1244965
	      0.1244956
	      0.1277985
	      0.1071277
	      0.1294253
	      0.1093809
	      0.1093821
	      0.1294264
	      0.1071266
	      0.1277981
	      0.1244951
	      0.1244942
	      0.1277972
	      0.1071267
	      0.1294247
	      0.1093808
	      0.1088467
	      0.1303171
	      0.1106491
	      0.1308454
	      0.1277981
	      0.1277972
	      0.1308444
	      0.1106491
	      0.1303155
	      0.1088455
	      0.0993147
	      0.1117482
	      0.0927858
	      0.1106501
	      0.1071275
	      0.1071268
	      0.1106492
	      0.0927856
	      0.1117468
	      0.0993139
	      0.0991362
	      0.1101934
	      0.1117466
	      0.1303155
	      0.1294245
	      0.1294241
	      0.1303148
	      0.1117463
	      0.1101923
	      0.0991357
	      0.1298160
	      0.0991362
	      0.0993139
	      0.1088453
	      0.1093806
	      0.1093806
	      0.1088451
	      0.0993137
	      0.0991358
	      0.1298150
	      1.6283633
	      0.9098145
	      0.9256971
	      0.9657369
	      0.9148879
	      0.9148852
	      0.9657316
	      0.9256938
	      0.9098067
	      1.6283308
	      0.9098073
	      0.1129104
	      0.1303339
	      0.1904015
	      0.1467515
	      0.1467503
	      0.1904005
	      0.1303374
	      0.1129126
	      0.9097875
	      0.9256877
	      0.1303334
	      0.1532696
	      0.2399409
	      0.1905615
	      0.1905600
	      0.2399392
	      0.1532729
	      0.1303356
	      0.9256643
	      0.9657281
	      0.1904023
	      0.2399425
	      0.3486471
	      0.2954083
	      0.2954066
	      0.3486446
	      0.2399452
	      0.1904041
	      0.9657033
	      0.9148785
	      0.1467523
	      0.1905631
	      0.2954081
	      0.2352380
	      0.2352363
	      0.2954057
	      0.1905664
	      0.1467549
	      0.9148544
	      0.9148750
	      0.1467505
	      0.1905605
	      0.2954050
	      0.2352349
	      0.2352332
	      0.2954026
	      0.1905638
	      0.1467530
	      0.9148509
	      0.9657218
	      0.1904006
	      0.2399397
	      0.3486430
	      0.2954040
	      0.2954023
	      0.3486406
	      0.2399425
	      0.1904024
	      0.9656969
	      0.9256849
	      0.1303384
	      0.1532749
	      0.2399458
	      0.1905669
	      0.1905654
	      0.2399441
	      0.1532782
	      0.1303406
	      0.9256616
	      0.9097980
	      0.1129133
	      0.1303366
	      0.1904042
	      0.1467551
	      0.1467539
	      0.1904032
	      0.1303401
	      0.1129156
	      0.9097782
	      1.6283182
	      0.9097788
	      0.9256555
	      0.9656935
	      0.9148442
	      0.9148416
	      0.9656882
	      0.9256522
	      0.9097710
	      1.6282857
