# vtk DataFile Version 3.0
test_file
ASCII
DATASET POLYDATA
POINTS 1000 float
   0.10000,    0.00000,    0.00000;
   0.10000,   -0.00000,    1.00000;
   0.10000,   -0.00000,    2.00000;
   0.10000,    0.00000,    3.00000;
   0.10000,    0.00000,    4.00000;
   0.10000,    0.00000,    5.00000;
   0.10000,    0.00000,    6.00000;
   0.10000,    0.00000,    7.00000;
   0.10000,   -0.00000,    8.00000;
   0.10000,    0.00000,    9.00000;
   0.10000,    1.00000,    0.00000;
   0.10000,    1.00000,    1.00000;
   0.10000,    1.00000,    2.00000;
   0.10000,    1.00000,    3.00000;
   0.10000,    1.00000,    4.00000;
   0.10000,    1.00000,    5.00000;
   0.10000,    1.00000,    6.00000;
   0.10000,    1.00000,    7.00000;
   0.10000,    1.00000,    8.00000;
   0.10000,    1.00000,    9.00000;
   0.10000,    2.00000,    0.00000;
   0.10000,    2.00000,    1.00000;
   0.10000,    2.00000,    2.00000;
   0.10000,    2.00000,    3.00000;
   0.10000,    2.00000,    4.00000;
   0.10000,    2.00000,    5.00000;
   0.10000,    2.00000,    6.00000;
   0.10000,    2.00000,    7.00000;
   0.10000,    2.00000,    8.00000;
   0.10000,    2.00000,    9.00000;
   0.10000,    3.00000,    0.00000;
   0.10000,    3.00000,    1.00000;
   0.10000,    3.00000,    2.00000;
   0.10000,    3.00000,    3.00000;
   0.10000,    3.00000,    4.00000;
   0.10000,    3.00000,    5.00000;
   0.10000,    3.00000,    6.00000;
   0.10000,    3.00000,    7.00000;
   0.10000,    3.00000,    8.00000;
   0.10000,    3.00000,    9.00000;
   0.10000,    4.00000,    0.00000;
   0.10000,    4.00000,    1.00000;
   0.10000,    4.00000,    2.00000;
   0.10000,    4.00000,    3.00000;
   0.10000,    4.00000,    4.00000;
   0.10000,    4.00000,    5.00000;
   0.10000,    4.00000,    6.00000;
   0.10000,    4.00000,    7.00000;
   0.10000,    4.00000,    8.00000;
   0.10000,    4.00000,    9.00000;
   0.10000,    5.00000,    0.00000;
   0.10000,    5.00000,    1.00000;
   0.10000,    5.00000,    2.00000;
   0.10000,    5.00000,    3.00000;
   0.10000,    5.00000,    4.00000;
   0.10000,    5.00000,    5.00000;
   0.10000,    5.00000,    6.00000;
   0.10000,    5.00000,    7.00000;
   0.10000,    5.00000,    8.00000;
   0.10000,    5.00000,    9.00000;
   0.10000,    6.00000,    0.00000;
   0.10000,    6.00000,    1.00000;
   0.10000,    6.00000,    2.00000;
   0.10000,    6.00000,    3.00000;
   0.10000,    6.00000,    4.00000;
   0.10000,    6.00000,    5.00000;
   0.10000,    6.00000,    6.00000;
   0.10000,    6.00000,    7.00000;
   0.10000,    6.00000,    8.00000;
   0.10000,    6.00000,    9.00000;
   0.10000,    7.00000,    0.00000;
   0.10000,    7.00000,    1.00000;
   0.10000,    7.00000,    2.00000;
   0.10000,    7.00000,    3.00000;
   0.10000,    7.00000,    4.00000;
   0.10000,    7.00000,    5.00000;
   0.10000,    7.00000,    6.00000;
   0.10000,    7.00000,    7.00000;
   0.10000,    7.00000,    8.00000;
   0.10000,    7.00000,    9.00000;
   0.10000,    8.00000,    0.00000;
   0.10000,    8.00000,    1.00000;
   0.10000,    8.00000,    2.00000;
   0.10000,    8.00000,    3.00000;
   0.10000,    8.00000,    4.00000;
   0.10000,    8.00000,    5.00000;
   0.10000,    8.00000,    6.00000;
   0.10000,    8.00000,    7.00000;
   0.10000,    8.00000,    8.00000;
   0.10000,    8.00000,    9.00000;
   0.10000,    9.00000,    0.00000;
   0.10000,    9.00000,    1.00000;
   0.10000,    9.00000,    2.00000;
   0.10000,    9.00000,    3.00000;
   0.10000,    9.00000,    4.00000;
   0.10000,    9.00000,    5.00000;
   0.10000,    9.00000,    6.00000;
   0.10000,    9.00000,    7.00000;
   0.10000,    9.00000,    8.00000;
   0.10000,    9.00000,    9.00000;
   2.57452,   -2.77687,   -2.77685;
   1.33258,   -3.04937,    1.30122;
   0.96673,   -1.43194,    2.30683;
   0.98355,   -0.46414,    3.08641;
   1.08507,   -0.01849,    4.00947;
   1.08502,   -0.01840,    4.98955;
   0.98328,   -0.46378,    5.91226;
   0.96593,   -1.43054,    6.69162;
   1.33133,   -3.04727,    7.69734;
   2.57520,   -2.77644,   11.77507;
   1.33259,    1.30100,   -3.04884;
  -0.02186,    1.81697,    1.81706;
   0.36453,    1.24057,    2.97478;
   0.81270,    0.82210,    3.40922;
   1.05551,    0.79884,    4.09106;
   1.05547,    0.79889,    4.90843;
   0.81253,    0.82226,    5.59031;
   0.36429,    1.24066,    6.02498;
  -0.02221,    1.81648,    7.18220;
   1.33345,    1.30008,   12.04638;
   0.96677,    2.30681,   -1.43159;
   0.36455,    2.97475,    1.24068;
   0.51523,    2.53962,    2.53972;
   0.83117,    2.05960,    3.32047;
   1.03514,    1.89038,    4.09647;
   1.03512,    1.89042,    4.90316;
   0.83106,    2.05974,    5.67905;
   0.51506,    2.53981,    6.45993;
   0.36447,    2.97462,    7.75882;
   0.96714,    2.30654,   10.42987;
   0.98362,    3.08637,   -0.46397;
   0.81273,    3.40915,    0.82217;
   0.83118,    3.32036,    2.05968;
   0.96744,    3.11506,    3.11516;
   1.06183,    3.00374,    4.05099;
   1.06180,    3.00375,    4.94869;
   0.96737,    3.11515,    5.88440;
   0.83112,    3.32054,    6.94004;
   0.81285,    3.40923,    8.17792;
   0.98396,    3.08632,    9.46328;
   1.08514,    4.00945,   -0.01844;
   1.05553,    4.09097,    0.79886;
   1.03515,    4.09636,    1.89046;
   1.06183,    4.05090,    3.00382;
   1.07757,    4.01840,    4.01845;
   1.07754,    4.01840,    4.98125;
   1.06177,    4.05093,    5.99582;
   1.03513,    4.09642,    7.10941;
   1.05567,    4.09101,    8.20144;
   1.08542,    4.00945,    9.01827;
   1.08508,    4.98955,   -0.01834;
   1.05547,    4.90828,    0.79892;
   1.03511,    4.90305,    1.89050;
   1.06181,    4.94861,    3.00384;
   1.07754,    4.98120,    4.01845;
   1.07751,    4.98120,    4.98124;
   1.06175,    4.94858,    5.99580;
   1.03510,    4.90298,    7.10937;
   1.05561,    4.90823,    8.20138;
   1.08536,    4.98956,    9.01817;
   0.98336,    5.91227,   -0.46362;
   0.81250,    5.59008,    0.82233;
   0.83105,    5.67901,    2.05974;
   0.96737,    5.88434,    3.11520;
   1.06178,    5.99573,    4.05101;
   1.06175,    5.99571,    4.94867;
   0.96730,    5.88426,    5.88436;
   0.83098,    5.67883,    6.93997;
   0.81262,    5.59001,    8.17775;
   0.98371,    5.91232,    9.46293;
   0.96602,    6.69160,   -1.43003;
   0.36422,    6.02482,    1.24082;
   0.51504,    6.46002,    2.53971;
   0.83110,    6.94003,    3.32058;
   1.03513,    7.10933,    4.09654;
   1.03510,    7.10929,    4.90310;
   0.83099,    6.93989,    5.67894;
   0.51488,    6.45983,    6.45993;
   0.36414,    6.02495,    7.75868;
   0.96639,    6.69187,   10.42831;
   1.33136,    7.69725,   -3.04638;
  -0.02230,    7.18202,    1.81666;
   0.36440,    7.75866,    2.97478;
   0.81282,    8.17785,    3.40946;
   1.05567,    8.20141,    4.09117;
   1.05563,    8.20136,    4.90833;
   0.81265,    8.17769,    5.59008;
   0.36416,    7.75857,    6.02498;
  -0.02265,    7.18251,    7.18261;
   1.33223,    7.69817,   12.04392;
   2.57531,   11.77476,   -2.77613;
   1.33349,   12.04549,    1.30017;
   0.96723,   10.42936,    2.30657;
   0.98405,    9.46312,    3.08631;
   1.08548,    9.01821,    4.00944;
   1.08542,    9.01813,    4.98957;
   0.98377,    9.46276,    5.91236;
   0.96643,   10.42796,    6.69189;
   1.33224,   12.04339,    7.69839;
   2.57599,   11.77433,   11.77434;
   2.82379,   -3.11053,   -3.11057;
   2.32899,   -3.34266,    2.15973;
   2.05596,   -1.69571,    2.84652;
   1.99794,   -0.71594,    3.26511;
   2.01834,   -0.19860,    4.03581;
   2.01834,   -0.19845,    4.96305;
   1.99787,   -0.71540,    5.73333;
   2.05549,   -1.69408,    6.15173;
   2.32839,   -3.34252,    6.83917;
   2.82422,   -3.11141,   12.10933;
   2.32914,    2.15938,   -3.34239;
   1.74138,    2.53365,    2.53385;
   1.76408,    1.69601,    3.92098;
   1.92321,    0.92834,    3.79190;
   2.01588,    0.79551,    4.16520;
   2.01584,    0.79561,    4.83453;
   1.92321,    0.92831,    5.20783;
   1.76396,    1.69609,    5.07902;
   1.74118,    2.53239,    6.46605;
   2.32963,    2.15689,   12.34152;
   2.05595,    2.84648,   -1.69536;
   1.76408,    3.92086,    1.69619;
   1.80772,    3.11619,    3.11635;
   1.94678,    2.25287,    3.58027;
   2.03123,    1.93708,    4.15522;
   2.03122,    1.93714,    4.84452;
   1.94677,    2.25298,    5.41926;
   1.80769,    3.11630,    5.88325;
   1.76402,    3.92043,    7.30330;
   2.05607,    2.84596,   10.69353;
   1.99793,    3.26509,   -0.71561;
   1.92320,    3.79179,    0.92847;
   1.94678,    3.58013,    2.25299;
   2.01911,    3.21830,    3.21841;
   2.06350,    3.03512,    4.07645;
   2.06350,    3.03514,    4.92322;
   2.01911,    3.21841,    5.78116;
   1.94679,    3.58035,    6.74668;
   1.92323,    3.79184,    8.07152;
   1.99804,    3.26500,    9.71463;
   2.01836,    4.03581,   -0.19855;
   2.01589,    4.16508,    0.79555;
   2.03124,    4.15510,    1.93717;
   2.06351,    4.07638,    3.03520;
   2.07912,    4.02639,    4.02643;
   2.07913,    4.02639,    4.97322;
   2.06351,    4.07641,    5.96441;
   2.03126,    4.15517,    7.06267;
   2.01592,    4.16513,    8.20475;
   2.01844,    4.03578,    9.19826;
   2.01836,    4.96308,   -0.19837;
   2.01585,    4.83436,    0.79565;
   2.03123,    4.84445,    1.93719;
   2.06352,    4.92319,    3.03519;
   2.07914,    4.97320,    4.02642;
   2.07914,    4.97319,    4.97323;
   2.06352,    4.92316,    5.96442;
   2.03125,    4.84437,    7.06264;
   2.01589,    4.83431,    8.20465;
   2.01844,    4.96311,    9.19808;
   1.99790,    5.73335,   -0.71517;
   1.92323,    5.20765,    0.92837;
   1.94678,    5.41932,    2.25290;
   2.01910,    5.78121,    3.21836;
   2.06353,    5.96436,    4.07644;
   2.06353,    5.96434,    4.92324;
   2.01910,    5.78110,    5.78121;
   1.94678,    5.41910,    6.74677;
   1.92325,    5.20760,    8.07163;
   1.99800,    5.73344,    9.71418;
   2.05550,    6.15169,   -1.69348;
   1.76397,    5.07909,    1.69618;
   1.80760,    5.88355,    3.11600;
   1.94680,    6.74676,    3.58029;
   2.03127,    7.06261,    4.15524;
[...]
POINT_DATA 1000
SCALARS C float
LOOKUP_TABLE default
	    -56.6242394
	    -36.4516526
	    -15.7690393
	      0.3974501
	      4.8960637
	      4.8989296
	      0.4056711
	    -15.7592144
	    -36.4423300
	    -56.6219572
	    -36.4526574
	    -22.4332804
	     -7.3484289
	      2.3580967
	      3.9884818
	      3.9899812
	      2.3631419
	     -7.3408060
	    -22.4251781
	    -36.4516772
	    -15.7696215
	     -7.3482493
	      0.6971731
	      4.2303381
	      3.4990692
	      3.4998864
	      4.2329159
	      0.7009287
	     -7.3449303
	    -15.7721695
	      0.3972847
	      2.3582431
	      4.2303221
	      3.6968174
	      2.2592184
	      2.2596431
	      3.6974721
	      4.2305039
	      2.3574311
	      0.3926639
	      4.8955758
	      3.9882987
	      3.4987875
	      2.2590063
	      1.3137726
	      1.3140573
	      2.2589326
	      3.4976145
	      3.9863796
	      4.8920540
	      4.8982329
	      3.9896696
	      3.4993146
	      2.2590867
	      1.3138073
	      1.3140924
	      2.2590138
	      3.4981421
	      3.9877496
	      4.8947074
	      0.4057756
	      2.3635437
	      4.2325189
	      3.6966127
	      2.2583759
	      2.2588014
	      3.6972695
	      4.2327021
	      2.3627289
	      0.4011446
	    -15.7575075
	     -7.3385763
	      0.7018820
	      4.2301050
	      3.4970409
	      3.4978580
	      4.2326833
	      0.7056370
	     -7.3352616
	    -15.7600645
	    -36.4397564
	    -22.4215231
	     -7.3427035
	      2.3578287
	      3.9860637
	      3.9875609
	      2.3628685
	     -7.3350859
	    -22.4134250
	    -36.4387768
	    -56.6203761
	    -36.4491026
	    -15.7704657
	      0.3927629
	      4.8913506
	      4.8942099
	      0.4009689
	    -15.7606521
	    -36.4397826
	    -56.6180782
	   -110.7468853
	    -62.7986665
	    -26.9995122
	     -1.4524087
	     10.6163119
	     10.6131635
	     -1.4575765
	    -26.9897289
	    -62.7725958
	   -110.7166688
	    -62.7959712
	    -21.5549370
	    -11.1571298
	     -1.1798542
	      3.4497773
	      3.4492973
	     -1.1803884
	    -11.1549426
	    -21.5497728
	    -62.7748615
	    -26.9966023
	    -11.1565531
	     -4.4200038
	      1.0908492
	      2.8225863
	      2.8222900
	      1.0898948
	     -4.4200034
	    -11.1537211
	    -26.9814561
	     -1.4492232
	     -1.1788796
	      1.0911948
	      1.9364902
	      1.6726986
	      1.6724705
	      1.9354096
	      1.0899802
	     -1.1792877
	     -1.4428782
	     10.6176782
	      3.4502322
	      2.8225454
	      1.6725056
	      0.8981793
	      0.8979784
	      1.6714815
	      2.8212660
	      3.4493208
	     10.6207914
	     10.6136487
	      3.4491587
	      2.8215503
	      1.6717483
	      0.8976805
	      0.8974801
	      1.6707259
	      2.8202730
	      3.4482484
	     10.6167582
	     -1.4554784
	     -1.1801074
	      1.0890917
	      1.9341472
	      1.6707585
	      1.6705320
	      1.9330717
	      1.0878830
	     -1.1805121
	     -1.4491388
	    -26.9828119
	    -11.1527213
	     -4.4194243
	      1.0891742
	      2.8205225
	      2.8202277
	      1.0882247
	     -4.4194187
	    -11.1498872
	    -26.9676668
	    -62.7624809
	    -21.5459574
	    -11.1515040
	     -1.1790135
	      3.4491744
	      3.4486941
	     -1.1795466
	    -11.1493150
	    -21.5407962
	    -62.7413728
	   -110.7063120
	    -62.7647513
	    -26.9745430
	     -1.4407962
	     10.6212536
	     10.6180983
	     -1.4459776
	    -26.9647723
	    -62.7386825
	   -110.6761131
	    -97.7084953
	    -53.0015137
	    -23.0687912
	     -2.1817489
	      7.5552024
	      7.5520691
	     -2.1863034
	    -23.0616012
	    -52.9961314
	    -97.6994062
	    -53.0018200
	    -15.7925483
	     -7.8835155
	     -0.1789436
	      3.3005669
	      3.2998187
	     -0.1803544
	     -7.8832450
	    -15.7943081
	    -52.9995438
	    -23.0672759
	     -7.8830048
	     -2.8944288
	      1.5361815
	      2.7676749
	      2.7672443
	      1.5349437
	     -2.8951155
	     -7.8817828
	    -23.0587195
	     -2.1785095
	     -0.1780048
	      1.5364901
	      2.0404928
	      1.6785647
	      1.6783455
	      2.0395177
	      1.5353260
	     -0.1787476
	     -2.1734073
	      7.5562294
	      3.3010434
	      2.7676323
	      1.6783516
	      1.0012523
	      1.0011318
	      1.6776594
	      2.7668932
	      3.3005462
	      7.5602071
	      7.5527250
	      3.2997741
	      2.7665170
	      1.6775668
	      1.0007734
	      1.0006535
	      1.6768763
	      2.7657801
	      3.2992783
	      7.5566988
	     -2.1845517
	     -0.1801304
	      1.5340976
	      2.0382297
	      1.6768798
	      1.6766621
	      2.0372597
	      1.5329398
	     -0.1808687
	     -2.1794528
	    -23.0562620
	     -7.8815718
	     -2.8948541
	      1.5344767
	      2.7661619
	      2.7657330
	      1.5332446
	     -2.8955343
	     -7.8803439
	    -23.0477077
	    -52.9908855
	    -15.7923794
	     -7.8801144
	     -0.1785309
	      3.3004941
	      3.2997463
	     -0.1799385
	     -7.8798378
	    -15.7941326
	    -52.9886271
	    -97.7044749
	    -52.9943042
	    -23.0533834
	     -2.1716694
	      7.5608445
	      7.5577050
	     -2.1762361
	    -23.0462119
	    -52.9889200
	    -97.6954332
	    -76.4634425
	    -43.8204018
	    -19.7327037
	     -0.9548419
	      7.5044902
	      7.5033234
	     -0.9564994
	    -19.7277484
	    -43.8180116
	    -76.4501698
	    -43.8218347
	    -15.8531876
	     -7.6638027
	      0.3468518
	      3.7226063
	      3.7224974
	      0.3468798
	     -7.6628591
	    -15.8548478
	    -43.8200508
	    -19.7313936
	     -7.6634468
	     -2.3720127
	      2.1596196
	      3.2204733
	      3.2204067
	      2.1591983
	     -2.3722227
	     -7.6626961
	    -19.7257122
	     -0.9528188
	      0.3475464
	      2.1598674
	      2.5534436
	      2.0646050
	      2.0645853
	      2.5529306
	      2.1590605
	      0.3465905
	     -0.9498596
	      7.5047612
	      3.7229663
	      3.2204213
	      2.0644094
	      1.3584774
	      1.3584901
	      2.0640617
	      3.2200476
	      3.7224868
	      7.5084510
	      7.5040354
	      3.7225645
	      3.2198278
	      2.0639263
	      1.3581856
	      1.3581988
	      2.0635801
	      3.2194561
	      3.7220862
	      7.5077206
	     -0.9550095
	      0.3472669
	      2.1586597
	      2.5519099
	      2.0634017
	      2.0633835
	      2.5514017
	      2.1578588
	      0.3463148
	     -0.9520547
	    -19.7235822
	     -7.6612493
	     -2.3716776
	      2.1585188
	      3.2194649
	      3.2193999
	      2.1581029
	     -2.3718813
	     -7.6604933
	    -19.7179001
	    -43.8138903
	    -15.8532453
	     -7.6610911
	      0.3469710
	      3.7225472
	      3.7224385
	      0.3470018
	     -7.6601414
	    -15.8549017
	    -43.8121253
	    -76.4518176
	    -43.8159353
	    -19.7215517
	     -0.9483822
	      7.5091473
	      7.5079737
	     -0.9500513
	    -19.7166069
	    -43.8135506
	    -76.4385548
	    -67.9986731
	    -41.4661335
	    -19.6649074
	     -0.1864600
	      8.7364420
	      8.7380935
	     -0.1820303
	    -19.6577073
	    -41.4561354
	    -67.9921906
	    -41.4652608
	    -18.0053698
	     -8.9577320
	      0.3113803
	      4.2478758
	      4.2494455
	      0.3157214
	     -8.9535978
	    -18.0029922
	    -41.4614753
	    -19.6639833
	     -8.9576620
	     -2.5480869
	      2.6029503
	      3.7679907
	      3.7689387
	      2.6052145
	     -2.5458897
	     -8.9560764
	    -19.6603259
	     -0.1865843
	      0.3114601
	      2.6030255
	      3.1567247
	      2.6165866
	      2.6170610
	      3.1575832
	      2.6037054
	      0.3109290
	     -0.1874305
	      8.7352714
	      4.2478863
	      3.7679464
	      2.6164691
	      1.8784776
	      1.8787736
	      2.6168452
	      3.7682596
	      4.2474208
	      8.7351500
	      8.7381042
	      4.2496292
	      3.7688038
	      2.6167719
	      1.8786281
	      1.8789243
	      2.6171491
	      3.7691181
	      4.2491640
	      8.7379783
	     -0.1810571
	      0.3165550
	      2.6055996
	      3.1573600
	      2.6165553
	      2.6170307
	      3.1582217
	      2.6062832
	      0.3160254
	     -0.1819099
	    -19.6547943
	     -8.9516306
	     -2.5444724
	      2.6040881
	      3.7681216
	      3.7690705
	      2.6063556
	     -2.5422709
	     -8.9500419
	    -19.6511350
	    -41.4526186
	    -18.0006368
	     -8.9541123
	      0.3117580
	      4.2475997
	      4.2491690
	      0.3161002
	     -8.9499738
	    -17.9982583
	    -41.4488306
	    -67.9886152
	    -41.4579594
	    -19.6574151
	     -0.1864640
	      8.7351510
	      8.7367966
	     -0.1820453
	    -19.6502176
	    -41.4479562
	    -67.9821270
	    -84.7240617
	    -51.7930479
	    -25.3951710
	     -1.9929787
	      9.1013080
	      9.1054887
	     -1.9817227
	    -25.3808454
	    -51.7811348
	    -84.7211521
	    -51.7920839
	    -19.6740973
	    -10.3700152
	     -0.3056457
	      4.3393805
	      4.3429920
	     -0.2968274
	    -10.3627060
	    -19.6694334
	    -51.7861069
	    -25.3951642
	    -10.3702042
	     -3.4423497
	      2.3821144
	      4.0701726
	      4.0723355
	      2.3874397
	     -3.4374243
	    -10.3667674
	    -25.3920944
	     -1.9942103
	     -0.3061714
	      2.3819525
	      3.4627508
	      3.1567792
	      3.1578375
	      3.4653224
	      2.3845465
	     -0.3053600
	     -1.9979586
	      9.0989122
	      4.3390586
	      4.0700979
	      3.1567139
	      2.4703496
	      2.4709748
	      3.1580362
	      4.0714614
	      4.3393574
	      9.0947696
	      9.1045114
	      4.3434898
	      4.0726839
	      3.1578833
	      2.4709362
	      2.4715615
	      3.1592060
	      4.0740476
	      4.3437880
	      9.1003652
	     -1.9814474
	     -0.2951574
	      2.3888095
	      3.4659120
	      3.1580814
	      3.1591400
	      3.4684849
	      2.3914050
	     -0.2943463
	     -1.9852033
	    -25.3786995
	    -10.3599235
	     -3.4351694
	      2.3859145
	      4.0718074
	      4.0739704
	      2.3912414
	     -3.4302411
	    -10.3564837
	    -25.3756288
	    -51.7774697
	    -19.6665821
	    -10.3639870
	     -0.3036933
	      4.3398517
	      4.3434627
	     -0.2948750
	    -10.3566737
	    -19.6619136
	    -51.7714871
	    -84.7158373
	    -51.7824421
	    -25.3899473
	     -1.9976834
	      9.0937898
	      9.0979663
	     -1.9864388
	    -25.3756239
	    -51.7705206
	    -84.7129207
	    -96.9873776
	    -58.9624785
	    -29.6099858
	     -5.9876569
	      3.6927763
	      3.6983262
	     -5.9695895
	    -29.5900203
	    -58.9542541
	    -96.9836115
	    -58.9624500
	    -17.7860859
	     -9.8386210
	     -1.5224926
	      1.8533069
	      1.8575910
	     -1.5118030
	     -9.8297141
	    -17.7788633
	    -58.9570679
	    -29.6111006
	     -9.8390170
	     -3.6541814
	      1.4176610
	      2.8958177
	      2.8984256
	      1.4241481
	     -3.6481315
	     -9.8337131
	    -29.6090659
	     -5.9894570
	     -1.5233733
	      1.4173286
	      3.0258967
	      3.0972098
	      3.0985395
	      3.0293102
	      1.4207968
	     -1.5216631
	     -5.9935871
	      3.6904468
	      1.8529486
	      2.8957345
	      3.0971696
	      2.8489465
	      2.8497457
	      3.0991176
	      2.8978216
	      1.8539352
	      3.6858857
	      3.6974941
	      1.8585453
	      2.8990422
	      3.0987212
	      2.8497274
	      2.8505266
	      3.1006690
	      2.9011289
	      1.8595315
	      3.6929307
	     -5.9693851
	     -1.5092958
	      1.4259109
	      3.0302068
	      3.0992988
	      3.1006283
	      3.0336202
	      1.4293790
	     -1.5075881
	     -5.9735221
	    -29.5882105
	     -9.8260716
	     -3.6456473
	      1.4225581
	      2.8984366
	      2.9010442
	      1.4290457
	     -3.6395956
	     -9.8207664
	    -29.5861756
	    -58.9508543
	    -17.7754430
	     -9.8300726
	     -1.5191578
	      1.8548875
	      1.8591719
	     -1.5084702
	     -9.8211631
	    -17.7682094
	    -58.9454759
	    -96.9797547
	    -58.9536718
	    -29.6072536
	     -5.9933780
	      3.6850560
	      3.6906042
	     -5.9753197
	    -29.5872909
	    -58.9454455
	    -96.9759963
	    -72.8038443
	    -44.0004300
	    -22.0062673
	    -10.5794132
	     -9.4245735
	     -9.4196223
	    -10.5637204
	    -21.9899773
	    -43.9945275
	    -72.8073237
	    -44.0011673
	    -11.1354629
	     -7.1895100
	     -4.1226078
	     -4.0594576
	     -4.0566566
	     -4.1144078
	     -7.1817073
	    -11.1286957
	    -44.0005282
	    -22.0081772
	     -7.1899974
	     -3.1780216
	     -0.7749303
	     -0.7709485
	     -0.7690757
	     -0.7699105
	     -3.1730441
	     -7.1865976
	    -22.0097951
	    -10.5823582
	     -4.1234122
	     -0.7751949
	      1.2248928
	      1.6121078
	      1.6132251
	      1.2278186
	     -0.7722494
	     -4.1222658
	    -10.5863691
	     -9.4261123
	     -4.0595450
	     -0.7708677
	      1.6121597
	      2.5622918
	      2.5630925
	      1.6141888
	     -0.7686952
	     -4.0583224
	     -9.4283130
	     -9.4192371
	     -4.0557072
	     -0.7683859
	      1.6135057
	      2.5631319
	      2.5639324
	      1.6155344
	     -0.7662140
	     -4.0544853
	     -9.4214392
	    -10.5630197
	     -4.1123479
	     -0.7683516
	      1.2286765
	      1.6144693
	      1.6155863
	      1.2316017
	     -0.7654069
	     -4.1112032
	    -10.5670362
	    -21.9900127
	     -7.1788991
	     -3.1709234
	     -0.7706911
	     -0.7680055
	     -0.7661328
	     -0.7656713
	     -3.1659455
	     -7.1754997
	    -21.9916295
	    -43.9949469
	    -11.1261646
	     -7.1837904
	     -4.1202067
	     -4.0573725
	     -4.0545713
	     -4.1120065
	     -7.1759868
	    -11.1193967
	    -43.9943101
	    -72.8114290
	    -44.0009499
	    -22.0098276
	    -10.5856651
	     -9.4279260
	     -9.4229747
	    -10.5699764
	    -21.9935352
	    -43.9950460
	    -72.8149013
	     50.4794973
	     18.0131717
	     -5.7556731
	    -21.1658368
	    -29.5346512
	    -29.5313385
	    -21.1577923
	     -5.7487664
	     18.0022749
	     50.4894999
	     18.0112989
	      0.8226104
	     -4.2850035
	     -8.4586133
	    -11.3610916
	    -11.3594913
	     -8.4542709
	     -4.2813965
	      0.8191608
	     17.9921860
	     -5.7586741
	     -4.2855868
	     -3.1573945
	     -4.1559398
	     -5.8514121
	     -5.8502667
	     -4.1529900
	     -3.1550350
	     -4.2872410
	     -5.7690131
	    -21.1682033
	     -8.4590213
	     -4.1560789
	     -1.5291644
	     -0.8360118
	     -0.8351938
	     -1.5270843
	     -4.1541236
	     -8.4587586
	    -21.1718503
	    -29.5349820
	    -11.3608456
	     -5.8512619
	     -0.8358989
	      1.9881820
	      1.9889996
	     -0.8338019
	     -5.8491076
	    -11.3591217
	    -29.5350767
	    -29.5301886
	    -11.3586773
	     -5.8496652
	     -0.8348762
	      1.9891028
	      1.9899202
	     -0.8327796
	     -5.8475115
	    -11.3569544
	    -29.5302838
	    -21.1563792
	     -8.4531105
	     -4.1517985
	     -1.5263533
	     -0.8334836
	     -0.8326659
	     -1.5242741
	     -4.1498445
	     -8.4528497
	    -21.1600263
	     -5.7502512
	     -4.2809197
	     -3.1536577
	     -4.1529314
	     -5.8485048
	     -5.8473596
	     -4.1499823
	     -3.1512993
	     -4.2825741
	     -5.7605872
	     17.9927799
	      0.8170461
	     -4.2867633
	     -8.4575970
	    -11.3583062
	    -11.3567062
	     -8.4532554
	     -4.2831559
	      0.8135981
	     17.9736736
	     50.5060626
	     17.9826953
	     -5.7704933
	    -21.1704333
	    -29.5339238
	    -29.5306105
	    -21.1623849
	     -5.7635801
	     17.9718159
	     50.5156569
	   -409.8075345
	     43.9608638
	     -2.0332243
	    -36.0349505
	    -48.2537305
	    -48.2510856
	    -36.0338173
	     -2.0341752
	     43.9479514
	   -410.6192431
	     43.9705576
	     47.5492871
	      0.0327896
	    -17.0077835
	    -20.9877196
	    -20.9870927
	    -17.0066979
	      0.0295875
	     47.5173942
	     44.0300272
	     -2.0321627
	      0.0332608
	     -4.4661606
	    -10.6538233
	    -14.3120490
	    -14.3115433
	    -10.6531772
	     -4.4672744
	      0.0282433
	     -2.0329230
	    -36.0362949
	    -17.0080564
	    -10.6536611
	     -5.3013220
	     -3.3997298
	     -3.3990765
	     -5.2998235
	    -10.6528812
	    -17.0089065
	    -36.0378830
	    -48.2542566
	    -20.9880978
	    -14.3120542
	     -3.3994329
	      5.6683804
	      5.6693946
	     -3.3965729
	    -14.3101237
	    -20.9878763
	    -48.2524983
	    -48.2496296
	    -20.9870819
	    -14.3113059
	     -3.3986137
	      5.6696558
	      5.6706686
	     -3.3957559
	    -14.3093760
	    -20.9868609
	    -48.2478732
	    -36.0311329
	    -17.0057355
	    -10.6524686
	     -5.2991282
	     -3.3961081
	     -3.3954567
	     -5.2976337
	    -10.6516916
	    -17.0065874
	    -36.0327219
	     -2.0331089
	      0.0301654
	     -4.4666686
	    -10.6521703
	    -14.3098839
	    -14.3093785
	    -10.6515266
	     -4.4677881
	      0.0251404
	     -2.0338597
	     43.9527887
	     47.5080573
	      0.0288270
	    -17.0079412
	    -20.9878650
	    -20.9872385
	    -17.0068569
	      0.0256167
	     47.4761811
	     44.0122767
	   -410.6628210
	     44.0348577
	     -2.0318476
	    -36.0351920
	    -48.2510418
	    -48.2483980
	    -36.0340563
	     -2.0327815
	     44.0219989
	   -411.4803637
