# vtk DataFile Version 3.0
test_file
ASCII
DATASET POLYDATA
POINTS 1000 float
   0.55000 	   -0.00000 	    0.00000
   0.55000 	   -0.00000 	    1.00000
   0.55000 	    0.00000 	    2.00000
   0.55000 	    0.00000 	    3.00000
   0.55000 	    0.00000 	    4.00000
   0.55000 	    0.00000 	    5.00000
   0.55000 	    0.00000 	    6.00000
   0.55000 	    0.00000 	    7.00000
   0.55000 	   -0.00000 	    8.00000
   0.55000 	    0.00000 	    9.00000
   0.55000 	    1.00000 	    0.00000
   0.55000 	    1.00000 	    1.00000
   0.55000 	    1.00000 	    2.00000
   0.55000 	    1.00000 	    3.00000
   0.55000 	    1.00000 	    4.00000
   0.55000 	    1.00000 	    5.00000
   0.55000 	    1.00000 	    6.00000
   0.55000 	    1.00000 	    7.00000
   0.55000 	    1.00000 	    8.00000
   0.55000 	    1.00000 	    9.00000
   0.55000 	    2.00000 	    0.00000
   0.55000 	    2.00000 	    1.00000
   0.55000 	    2.00000 	    2.00000
   0.55000 	    2.00000 	    3.00000
   0.55000 	    2.00000 	    4.00000
   0.55000 	    2.00000 	    5.00000
   0.55000 	    2.00000 	    6.00000
   0.55000 	    2.00000 	    7.00000
   0.55000 	    2.00000 	    8.00000
   0.55000 	    2.00000 	    9.00000
   0.55000 	    3.00000 	    0.00000
   0.55000 	    3.00000 	    1.00000
   0.55000 	    3.00000 	    2.00000
   0.55000 	    3.00000 	    3.00000
   0.55000 	    3.00000 	    4.00000
   0.55000 	    3.00000 	    5.00000
   0.55000 	    3.00000 	    6.00000
   0.55000 	    3.00000 	    7.00000
   0.55000 	    3.00000 	    8.00000
   0.55000 	    3.00000 	    9.00000
   0.55000 	    4.00000 	    0.00000
   0.55000 	    4.00000 	    1.00000
   0.55000 	    4.00000 	    2.00000
   0.55000 	    4.00000 	    3.00000
   0.55000 	    4.00000 	    4.00000
   0.55000 	    4.00000 	    5.00000
   0.55000 	    4.00000 	    6.00000
   0.55000 	    4.00000 	    7.00000
   0.55000 	    4.00000 	    8.00000
   0.55000 	    4.00000 	    9.00000
   0.55000 	    5.00000 	    0.00000
   0.55000 	    5.00000 	    1.00000
   0.55000 	    5.00000 	    2.00000
   0.55000 	    5.00000 	    3.00000
   0.55000 	    5.00000 	    4.00000
   0.55000 	    5.00000 	    5.00000
   0.55000 	    5.00000 	    6.00000
   0.55000 	    5.00000 	    7.00000
   0.55000 	    5.00000 	    8.00000
   0.55000 	    5.00000 	    9.00000
   0.55000 	    6.00000 	    0.00000
   0.55000 	    6.00000 	    1.00000
   0.55000 	    6.00000 	    2.00000
   0.55000 	    6.00000 	    3.00000
   0.55000 	    6.00000 	    4.00000
   0.55000 	    6.00000 	    5.00000
   0.55000 	    6.00000 	    6.00000
   0.55000 	    6.00000 	    7.00000
   0.55000 	    6.00000 	    8.00000
   0.55000 	    6.00000 	    9.00000
   0.55000 	    7.00000 	    0.00000
   0.55000 	    7.00000 	    1.00000
   0.55000 	    7.00000 	    2.00000
   0.55000 	    7.00000 	    3.00000
   0.55000 	    7.00000 	    4.00000
   0.55000 	    7.00000 	    5.00000
   0.55000 	    7.00000 	    6.00000
   0.55000 	    7.00000 	    7.00000
   0.55000 	    7.00000 	    8.00000
   0.55000 	    7.00000 	    9.00000
   0.55000 	    8.00000 	    0.00000
   0.55000 	    8.00000 	    1.00000
   0.55000 	    8.00000 	    2.00000
   0.55000 	    8.00000 	    3.00000
   0.55000 	    8.00000 	    4.00000
   0.55000 	    8.00000 	    5.00000
   0.55000 	    8.00000 	    6.00000
   0.55000 	    8.00000 	    7.00000
   0.55000 	    8.00000 	    8.00000
   0.55000 	    8.00000 	    9.00000
   0.55000 	    9.00000 	    0.00000
   0.55000 	    9.00000 	    1.00000
   0.55000 	    9.00000 	    2.00000
   0.55000 	    9.00000 	    3.00000
   0.55000 	    9.00000 	    4.00000
   0.55000 	    9.00000 	    5.00000
   0.55000 	    9.00000 	    6.00000
   0.55000 	    9.00000 	    7.00000
   0.55000 	    9.00000 	    8.00000
   0.55000 	    9.00000 	    9.00000
   1.55661 	   -0.09823 	   -0.09823
   1.54869 	   -0.10619 	    0.94587
   1.54612 	   -0.10671 	    1.97142
   1.54994 	   -0.11000 	    2.97693
   1.54748 	   -0.10973 	    3.99120
   1.54748 	   -0.10973 	    5.00880
   1.54994 	   -0.11000 	    6.02307
   1.54612 	   -0.10671 	    7.02858
   1.54869 	   -0.10619 	    8.05413
   1.55661 	   -0.09823 	    9.09823
   1.54869 	    0.94587 	   -0.10619
   1.53746 	    0.92621 	    0.92621
   1.52760 	    0.93300 	    1.96443
   1.53028 	    0.92972 	    2.96368
   1.52897 	    0.93311 	    3.98565
   1.52897 	    0.93312 	    5.01435
   1.53028 	    0.92972 	    6.03632
   1.52760 	    0.93300 	    7.03557
   1.53746 	    0.92621 	    8.07378
   1.54869 	    0.94587 	    9.10619
   1.54612 	    1.97142 	   -0.10671
   1.52760 	    1.96442 	    0.93300
   1.52877 	    1.96635 	    1.96635
   1.52849 	    1.96682 	    2.95635
   1.53015 	    1.96765 	    3.98283
   1.53015 	    1.96765 	    5.01716
   1.52849 	    1.96682 	    6.04364
   1.52877 	    1.96635 	    7.03365
   1.52760 	    1.96442 	    8.06700
   1.54612 	    1.97142 	    9.10671
   1.54994 	    2.97693 	   -0.11000
   1.53028 	    2.96368 	    0.92973
   1.52849 	    2.95635 	    1.96682
   1.52659 	    2.95551 	    2.95551
   1.52811 	    2.95470 	    3.98272
   1.52811 	    2.95470 	    5.01727
   1.52659 	    2.95551 	    6.04449
   1.52848 	    2.95635 	    7.03317
   1.53028 	    2.96368 	    8.07027
   1.54994 	    2.97693 	    9.11000
   1.54748 	    3.99120 	   -0.10973
   1.52897 	    3.98564 	    0.93312
   1.53015 	    3.98283 	    1.96765
   1.52811 	    3.98272 	    2.95470
   1.52956 	    3.98248 	    3.98248
   1.52956 	    3.98248 	    5.01751
   1.52811 	    3.98272 	    6.04530
   1.53015 	    3.98283 	    7.03235
   1.52897 	    3.98564 	    8.06688
   1.54748 	    3.99120 	    9.10972
   1.54748 	    5.00880 	   -0.10973
   1.52897 	    5.01435 	    0.93312
   1.53015 	    5.01716 	    1.96765
   1.52811 	    5.01727 	    2.95470
   1.52956 	    5.01751 	    3.98248
   1.52956 	    5.01751 	    5.01751
   1.52811 	    5.01727 	    6.04530
   1.53015 	    5.01716 	    7.03235
   1.52897 	    5.01435 	    8.06688
   1.54748 	    5.00880 	    9.10972
   1.54994 	    6.02307 	   -0.11000
   1.53028 	    6.03631 	    0.92973
   1.52849 	    6.04364 	    1.96683
   1.52659 	    6.04448 	    2.95551
   1.52811 	    6.04529 	    3.98272
   1.52811 	    6.04529 	    5.01727
   1.52659 	    6.04448 	    6.04448
   1.52849 	    6.04364 	    7.03317
   1.53028 	    6.03631 	    8.07027
   1.54994 	    6.02307 	    9.11000
   1.54612 	    7.02858 	   -0.10671
   1.52760 	    7.03557 	    0.93300
   1.52877 	    7.03365 	    1.96635
   1.52848 	    7.03317 	    2.95635
   1.53015 	    7.03235 	    3.98283
   1.53015 	    7.03235 	    5.01716
   1.52848 	    7.03317 	    6.04364
   1.52877 	    7.03365 	    7.03365
   1.52760 	    7.03557 	    8.06700
   1.54612 	    7.02858 	    9.10670
   1.54869 	    8.05413 	   -0.10619
   1.53746 	    8.07378 	    0.92621
   1.52760 	    8.06700 	    1.96443
   1.53028 	    8.07027 	    2.96368
   1.52897 	    8.06688 	    3.98565
   1.52897 	    8.06688 	    5.01435
   1.53028 	    8.07027 	    6.03632
   1.52760 	    8.06699 	    7.03557
   1.53746 	    8.07378 	    8.07378
   1.54869 	    8.05412 	    9.10618
   1.55661 	    9.09823 	   -0.09823
   1.54869 	    9.10618 	    0.94587
   1.54612 	    9.10670 	    1.97142
   1.54994 	    9.10999 	    2.97693
   1.54748 	    9.10972 	    3.99120
   1.54748 	    9.10972 	    5.00880
   1.54994 	    9.10999 	    6.02307
   1.54612 	    9.10670 	    7.02858
   1.54869 	    9.10618 	    8.05412
   1.55661 	    9.09823 	    9.09823
   2.42777 	   -0.14358 	   -0.14358
   2.44980 	   -0.15094 	    0.89304
   2.45643 	   -0.15675 	    1.92954
   2.45605 	   -0.16242 	    2.95660
   2.45375 	   -0.16561 	    3.98578
   2.45375 	   -0.16561 	    5.01422
   2.45605 	   -0.16242 	    6.04339
   2.45643 	   -0.15675 	    7.07045
   2.44980 	   -0.15094 	    8.10696
   2.42777 	   -0.14358 	    9.14358
   2.44980 	    0.89304 	   -0.15094
   2.50274 	    0.88073 	    0.88073
   2.51881 	    0.87243 	    1.93616
   2.51842 	    0.86744 	    2.96160
   2.51471 	    0.86255 	    3.98803
   2.51471 	    0.86255 	    5.01197
   2.51842 	    0.86744 	    6.03840
   2.51881 	    0.87243 	    7.06384
   2.50274 	    0.88073 	    8.11926
   2.44980 	    0.89304 	    9.15093
   2.45643 	    1.92954 	   -0.15675
   2.51881 	    1.93615 	    0.87244
   2.52384 	    1.93581 	    1.93581
   2.51929 	    1.93360 	    2.96143
   2.51173 	    1.92821 	    3.98830
   2.51173 	    1.92821 	    5.01169
   2.51929 	    1.93360 	    6.03857
   2.52384 	    1.93581 	    7.06418
   2.51881 	    1.93616 	    8.12756
   2.45643 	    1.92955 	    9.15674
   2.45605 	    2.95660 	   -0.16242
   2.51842 	    2.96160 	    0.86744
   2.51929 	    2.96143 	    1.93360
   2.51301 	    2.96109 	    2.96109
   2.50522 	    2.95832 	    3.98815
   2.50522 	    2.95832 	    5.01184
   2.51301 	    2.96109 	    6.03890
   2.51929 	    2.96143 	    7.06639
   2.51842 	    2.96160 	    8.13255
   2.45605 	    2.95660 	    9.16241
   2.45375 	    3.98577 	   -0.16561
   2.51471 	    3.98802 	    0.86255
   2.51173 	    3.98830 	    1.92822
   2.50522 	    3.98815 	    2.95832
   2.49614 	    3.98725 	    3.98725
   2.49614 	    3.98725 	    5.01274
   2.50522 	    3.98815 	    6.04167
   2.51172 	    3.98830 	    7.07178
   2.51471 	    3.98803 	    8.13744
   2.45375 	    3.98577 	    9.16560
   2.45375 	    5.01422 	   -0.16561
   2.51471 	    5.01197 	    0.86255
   2.51173 	    5.01169 	    1.92822
   2.50522 	    5.01184 	    2.95832
   2.49614 	    5.01274 	    3.98725
   2.49614 	    5.01274 	    5.01274
   2.50522 	    5.01184 	    6.04167
   2.51172 	    5.01169 	    7.07178
   2.51471 	    5.01197 	    8.13744
   2.45375 	    5.01422 	    9.16560
   2.45605 	    6.04339 	   -0.16242
   2.51842 	    6.03839 	    0.86744
   2.51929 	    6.03856 	    1.93360
   2.51301 	    6.03890 	    2.96109
   2.50522 	    6.04167 	    3.98815
   2.50522 	    6.04167 	    5.01184
   2.51301 	    6.03890 	    6.03890
   2.51929 	    6.03856 	    7.06640
[...]
POINT_DATA 1000
SCALARS C float
LOOKUP_TABLE default
	      1.0183066
	      0.5813462
	      0.5786984
	      0.6026941
	      0.5738239
	      0.5738211
	      0.6026898
	      0.5786964
	      0.5813386
	      1.0182815
	      0.5813409
	      0.1162530
	      0.1155753
	      0.1452235
	      0.1225202
	      0.1225184
	      0.1452218
	      0.1155786
	      0.1162525
	      0.5813251
	      0.5786913
	      0.1155747
	      0.1178872
	      0.1608406
	      0.1360092
	      0.1360069
	      0.1608381
	      0.1178906
	      0.1155753
	      0.5786728
	      0.6026873
	      0.1452238
	      0.1608419
	      0.2163479
	      0.1900355
	      0.1900329
	      0.2163450
	      0.1608450
	      0.1452242
	      0.6026674
	      0.5738165
	      0.1225204
	      0.1360105
	      0.1900353
	      0.1598654
	      0.1598627
	      0.1900323
	      0.1360137
	      0.1225214
	      0.5737971
	      0.5738130
	      0.1225179
	      0.1360071
	      0.1900314
	      0.1598612
	      0.1598585
	      0.1900283
	      0.1360104
	      0.1225188
	      0.5737936
	      0.6026822
	      0.1452213
	      0.1608385
	      0.2163436
	      0.1900307
	      0.1900282
	      0.2163407
	      0.1608416
	      0.1452217
	      0.6026623
	      0.5786897
	      0.1155790
	      0.1178922
	      0.1608453
	      0.1360139
	      0.1360116
	      0.1608429
	      0.1178956
	      0.1155797
	      0.5786712
	      0.5813316
	      0.1162520
	      0.1155757
	      0.1452238
	      0.1225209
	      0.1225190
	      0.1452221
	      0.1155790
	      0.1162515
	      0.5813158
	      1.0182723
	      0.5813181
	      0.5786661
	      0.6026599
	      0.5737891
	      0.5737863
	      0.6026555
	      0.5786641
	      0.5813105
	      1.0182472
	      0.0800268
	      0.0617599
	      0.0615747
	      0.0672930
	      0.0680376
	      0.0680376
	      0.0672930
	      0.0615746
	      0.0617598
	      0.0800263
	      0.0617601
	      0.0653857
	      0.0656162
	      0.0776061
	      0.0768831
	      0.0768830
	      0.0776061
	      0.0656156
	      0.0653856
	      0.0617597
	      0.0615746
	      0.0656160
	      0.0537474
	      0.0643750
	      0.0615958
	      0.0615955
	      0.0643752
	      0.0537466
	      0.0656158
	      0.0615738
	      0.0672928
	      0.0776056
	      0.0643747
	      0.0751631
	      0.0720178
	      0.0720173
	      0.0751632
	      0.0643738
	      0.0776054
	      0.0672916
	      0.0680375
	      0.0768829
	      0.0615957
	      0.0720178
	      0.0684222
	      0.0684217
	      0.0720179
	      0.0615948
	      0.0768826
	      0.0680363
	      0.0680375
	      0.0768827
	      0.0615952
	      0.0720172
	      0.0684215
	      0.0684209
	      0.0720172
	      0.0615944
	      0.0768824
	      0.0680363
	      0.0672928
	      0.0776058
	      0.0643750
	      0.0751631
	      0.0720178
	      0.0720173
	      0.0751632
	      0.0643741
	      0.0776055
	      0.0672915
	      0.0615743
	      0.0656151
	      0.0537461
	      0.0643736
	      0.0615946
	      0.0615943
	      0.0643738
	      0.0537453
	      0.0656149
	      0.0615736
	      0.0617596
	      0.0653856
	      0.0656154
	      0.0776050
	      0.0768824
	      0.0768822
	      0.0776051
	      0.0656147
	      0.0653854
	      0.0617592
	      0.0800266
	      0.0617596
	      0.0615736
	      0.0672914
	      0.0680362
	      0.0680362
	      0.0672913
	      0.0615735
	      0.0617594
	      0.0800261
	      0.1836938
	      0.1348637
	      0.1226380
	      0.1216984
	      0.1211407
	      0.1211406
	      0.1216980
	      0.1226372
	      0.1348623
	      0.1836915
	      0.1348637
	      0.1067644
	      0.1004842
	      0.1003282
	      0.0995118
	      0.0995117
	      0.1003278
	      0.1004834
	      0.1067634
	      0.1348630
	      0.1226380
	      0.1004840
	      0.1008290
	      0.0967435
	      0.1022146
	      0.1022141
	      0.0967441
	      0.1008279
	      0.1004829
	      0.1226370
	      0.1216982
	      0.1003276
	      0.0967429
	      0.0911079
	      0.0985457
	      0.0985460
	      0.0911091
	      0.0967410
	      0.1003263
	      0.1216969
	      0.1211404
	      0.0995113
	      0.1022142
	      0.0985461
	      0.1067304
	      0.1067303
	      0.0985469
	      0.1022129
	      0.0995099
	      0.1211391
	      0.1211402
	      0.0995112
	      0.1022135
	      0.0985460
	      0.1067302
	      0.1067301
	      0.0985468
	      0.1022122
	      0.0995099
	      0.1211389
	      0.1216975
	      0.1003271
	      0.0967439
	      0.0911093
	      0.0985469
	      0.0985472
	      0.0911105
	      0.0967421
	      0.1003258
	      0.1216963
	      0.1226366
	      0.1004827
	      0.1008270
	      0.0967408
	      0.1022122
	      0.1022118
	      0.0967414
	      0.1008258
	      0.1004817
	      0.1226357
	      0.1348616
	      0.1067634
	      0.1004822
	      0.1003256
	      0.0995094
	      0.0995093
	      0.1003252
	      0.1004815
	      0.1067624
	      0.1348609
	      0.1836910
	      0.1348623
	      0.1226364
	      0.1216964
	      0.1211387
	      0.1211386
	      0.1216960
	      0.1226356
	      0.1348609
	      0.1836887
	      0.1748466
	      0.1380164
	      0.1309870
	      0.1305665
	      0.1307125
	      0.1307124
	      0.1305661
	      0.1309863
	      0.1380153
	      0.1748450
	      0.1380167
	      0.1114989
	      0.1074920
	      0.1060102
	      0.1054677
	      0.1054677
	      0.1060101
	      0.1074915
	      0.1114991
	      0.1380160
	      0.1309872
	      0.1074924
	      0.1280499
	      0.1234978
	      0.1343372
	      0.1343372
	      0.1234981
	      0.1280477
	      0.1074929
	      0.1309859
	      0.1305665
	      0.1060104
	      0.1234969
	      0.1091031
	      0.1202168
	      0.1202172
	      0.1091039
	      0.1234948
	      0.1060107
	      0.1305650
	      0.1307124
	      0.1054678
	      0.1343365
	      0.1202171
	      0.1330754
	      0.1330752
	      0.1202172
	      0.1343346
	      0.1054679
	      0.1307108
	      0.1307121
	      0.1054677
	      0.1343363
	      0.1202171
	      0.1330750
	      0.1330748
	      0.1202172
	      0.1343344
	      0.1054679
	      0.1307105
	      0.1305657
	      0.1060100
	      0.1234976
	      0.1091038
	      0.1202171
	      0.1202174
	      0.1091045
	      0.1234956
	      0.1060103
	      0.1305642
	      0.1309857
	      0.1074913
	      0.1280465
	      0.1234944
	      0.1343337
	      0.1343337
	      0.1234946
	      0.1280443
	      0.1074919
	      0.1309845
	      0.1380147
	      0.1114993
	      0.1074927
	      0.1060106
	      0.1054680
	      0.1054679
	      0.1060105
	      0.1074922
	      0.1114995
	      0.1380139
	      0.1748447
	      0.1380154
	      0.1309854
	      0.1305646
	      0.1307105
	      0.1307104
	      0.1305642
	      0.1309847
	      0.1380142
	      0.1748431
	      0.1423402
	      0.1200963
	      0.1183019
	      0.1204398
	      0.1209387
	      0.1209385
	      0.1204395
	      0.1183015
	      0.1200957
	      0.1423398
	      0.1200968
	      0.0963166
	      0.0963631
	      0.0972613
	      0.0964949
	      0.0964945
	      0.0972609
	      0.0963630
	      0.0963172
	      0.1200974
	      0.1183025
	      0.0963636
	      0.1127069
	      0.1138697
	      0.1209566
	      0.1209561
	      0.1138688
	      0.1127059
	      0.0963645
	      0.1183026
	      0.1204403
	      0.0972618
	      0.1138692
	      0.1044432
	      0.1108486
	      0.1108479
	      0.1044427
	      0.1138691
	      0.0972627
	      0.1204402
	      0.1209390
	      0.0964954
	      0.1209561
	      0.1108486
	      0.1199197
	      0.1199185
	      0.1108474
	      0.1209561
	      0.0964953
	      0.1209388
	      0.1209387
	      0.0964947
	      0.1209554
	      0.1108476
	      0.1199181
	      0.1199169
	      0.1108464
	      0.1209555
	      0.0964946
	      0.1209385
	      0.1204395
	      0.0972610
	      0.1138684
	      0.1044422
	      0.1108471
	      0.1108465
	      0.1044417
	      0.1138683
	      0.0972620
	      0.1204393
	      0.1183013
	      0.0963630
	      0.1127052
	      0.1138687
	      0.1209554
	      0.1209550
	      0.1138679
	      0.1127042
	      0.0963639
	      0.1183014
	      0.1200956
	      0.0963176
	      0.0963645
	      0.0972628
	      0.0964955
	      0.0964951
	      0.0972625
	      0.0963643
	      0.0963183
	      0.1200962
	      0.1423404
	      0.1200973
	      0.1183024
	      0.1204402
	      0.1209390
	      0.1209389
	      0.1204399
	      0.1183020
	      0.1200967
	      0.1423401
	      0.1422704
	      0.1200789
	      0.1183365
	      0.1204857
	      0.1209956
	      0.1209954
	      0.1204853
	      0.1183361
	      0.1200785
	      0.1422702
	      0.1200794
	      0.0963820
	      0.0969046
	      0.0975721
	      0.0967696
	      0.0967692
	      0.0975716
	      0.0969044
	      0.0963825
	      0.1200803
	      0.1183371
	      0.0969050
	      0.1124795
	      0.1136874
	      0.1224079
	      0.1224082
	      0.1136870
	      0.1124784
	      0.0969050
	      0.1183374
	      0.1204863
	      0.0975725
	      0.1136868
	      0.1052140
	      0.1140020
	      0.1140023
	      0.1052141
	      0.1136864
	      0.0975725
	      0.1204864
	      0.1209960
	      0.0967698
	      0.1224075
	      0.1140021
	      0.1258060
	      0.1258059
	      0.1140017
	      0.1224073
	      0.0967691
	      0.1209961
	      0.1209956
	      0.0967693
	      0.1224076
	      0.1140023
	      0.1258059
	      0.1258059
	      0.1140019
	      0.1224075
	      0.0967685
	      0.1209957
	      0.1204854
	      0.0975715
	      0.1136866
	      0.1052139
	      0.1140017
	      0.1140020
	      0.1052140
	      0.1136862
	      0.0975715
	      0.1204855
	      0.1183360
	      0.0969042
	      0.1124777
	      0.1136861
	      0.1224067
	      0.1224070
	      0.1136856
	      0.1124766
	      0.0969042
	      0.1183363
	      0.1200784
	      0.0963826
	      0.0969049
	      0.0975724
	      0.0967692
	      0.0967688
	      0.0975719
	      0.0969046
	      0.0963831
	      0.1200793
	      0.1422709
	      0.1200802
	      0.1183374
	      0.1204864
	      0.1209963
	      0.1209961
	      0.1204861
	      0.1183370
	      0.1200798
	      0.1422707
	      0.1748765
	      0.1380804
	      0.1310872
	      0.1306621
	      0.1308114
	      0.1308113
	      0.1306616
	      0.1310865
	      0.1380794
	      0.1748750
	      0.1380807
	      0.1116062
	      0.1075847
	      0.1059179
	      0.1054736
	      0.1054735
	      0.1059176
	      0.1075841
	      0.1116061
	      0.1380802
	      0.1310874
	      0.1075850
	      0.1268348
	      0.1227191
	      0.1335450
	      0.1335457
	      0.1227194
	      0.1268328
	      0.1075851
	      0.1310863
	      0.1306621
	      0.1059181
	      0.1227183
	      0.1091628
	      0.1202105
	      0.1202117
	      0.1091634
	      0.1227164
	      0.1059181
	      0.1306607
	      0.1308113
	      0.1054736
	      0.1335443
	      0.1202105
	      0.1328390
	      0.1328400
	      0.1202103
	      0.1335422
	      0.1054737
	      0.1308098
	      0.1308110
	      0.1054734
	      0.1335449
	      0.1202116
	      0.1328401
	      0.1328412
	      0.1202114
	      0.1335428
	      0.1054736
	      0.1308095
	      0.1306612
	      0.1059175
	      0.1227189
	      0.1091631
	      0.1202102
	      0.1202113
	      0.1091637
	      0.1227170
	      0.1059176
	      0.1306598
	      0.1310859
	      0.1075839
	      0.1268318
	      0.1227159
	      0.1335414
	      0.1335420
	      0.1227162
	      0.1268297
	      0.1075840
	      0.1310848
	      0.1380788
	      0.1116061
	      0.1075848
	      0.1059180
	      0.1054737
	      0.1054735
	      0.1059177
	      0.1075842
	      0.1116060
	      0.1380784
	      0.1748748
	      0.1380796
	      0.1310857
	      0.1306603
	      0.1308096
	      0.1308094
	      0.1306599
	      0.1310850
	      0.1380786
	      0.1748733
	      0.1841532
	      0.1351641
	      0.1229088
	      0.1219548
	      0.1213966
	      0.1213965
	      0.1219543
	      0.1229081
	      0.1351628
	      0.1841506
	      0.1351641
	      0.1068908
	      0.1002404
	      0.1001749
	      0.0996348
	      0.0996347
	      0.1001746
	      0.1002399
	      0.1068902
	      0.1351625
	      0.1229087
	      0.1002405
	      0.1006436
	      0.0976213
	      0.1008341
	      0.1008337
	      0.0976215
	      0.1006428
	      0.1002413
	      0.1229065
	      0.1219544
	      0.1001746
	      0.0976208
	      0.0924406
	      0.0965095
	      0.0965097
	      0.0924410
	      0.0976197
	      0.1001750
	      0.1219519
	      0.1213961
	      0.0996346
	      0.1008337
	      0.0965097
	      0.1006959
	      0.1006959
	      0.0965097
	      0.1008326
	      0.0996350
	      0.1213935
	      0.1213959
	      0.0996344
	      0.1008332
	      0.0965096
	      0.1006958
	      0.1006958
	      0.0965095
	      0.1008321
	      0.0996348
	      0.1213933
	      0.1219536
	      0.1001742
	      0.0976213
	      0.0924411
	      0.0965096
	      0.0965097
	      0.0924416
	      0.0976202
	      0.1001746
	      0.1219511
	      0.1229073
	      0.1002395
	      0.1006420
	      0.0976195
	      0.1008321
	      0.1008317
	      0.0976197
	      0.1006412
	      0.1002403
	      0.1229051
	      0.1351619
	      0.1068906
	      0.1002409
	      0.1001746
	      0.0996348
	      0.0996346
	      0.1001743
	      0.1002403
	      0.1068900
	      0.1351602
	      0.1841498
	      0.1351616
	      0.1229057
	      0.1219512
	      0.1213929
	      0.1213928
	      0.1219508
	      0.1229049
	      0.1351603
	      0.1841472
	      0.0806692
	      0.0622246
	      0.0620498
	      0.0677953
	      0.0685270
	      0.0685270
	      0.0677952
	      0.0620498
	      0.0622246
	      0.0806687
	      0.0622248
	      0.0654510
	      0.0654760
	      0.0776218
	      0.0769810
	      0.0769808
	      0.0776213
	      0.0654758
	      0.0654506
	      0.0622247
	      0.0620498
	      0.0654757
	      0.0533881
	      0.0642974
	      0.0621092
	      0.0621088
	      0.0642968
	      0.0533878
	      0.0654750
	      0.0620494
	      0.0677952
	      0.0776213
	      0.0642975
	      0.0763355
	      0.0747639
	      0.0747634
	      0.0763348
	      0.0642972
	      0.0776203
	      0.0677943
	      0.0685269
	      0.0769806
	      0.0621092
	      0.0747638
	      0.0734804
	      0.0734799
	      0.0747633
	      0.0621092
	      0.0769796
	      0.0685260
	      0.0685270
	      0.0769804
	      0.0621086
	      0.0747631
	      0.0734797
	      0.0734792
	      0.0747626
	      0.0621086
	      0.0769793
	      0.0685260
	      0.0677951
	      0.0776208
	      0.0642965
	      0.0763345
	      0.0747631
	      0.0747626
	      0.0763338
	      0.0642963
	      0.0776197
	      0.0677942
	      0.0620496
	      0.0654752
	      0.0533875
	      0.0642969
	      0.0621090
	      0.0621086
	      0.0642963
	      0.0533872
	      0.0654744
	      0.0620492
	      0.0622246
	      0.0654505
	      0.0654744
	      0.0776197
	      0.0769792
	      0.0769790
	      0.0776193
	      0.0654741
	      0.0654500
	      0.0622244
	      0.0806691
	      0.0622247
	      0.0620493
	      0.0677942
	      0.0685260
	      0.0685260
	      0.0677941
	      0.0620492
	      0.0622246
	      0.0806686
	      1.0181859
	      0.5806703
	      0.5772814
	      0.6017368
	      0.5729744
	      0.5729724
	      0.6017328
	      0.5772779
	      0.5806627
	      1.0181613
	      0.5806651
	      0.1176917
	      0.1160622
	      0.1455404
	      0.1230482
	      0.1230474
	      0.1455397
	      0.1160640
	      0.1176920
	      0.5806496
	      0.5772744
	      0.1160615
	      0.1175024
	      0.1601229
	      0.1356638
	      0.1356625
	      0.1601215
	      0.1175044
	      0.1160620
	      0.5772563
	      0.6017299
	      0.1455405
	      0.1601238
	      0.2154379
	      0.1898524
	      0.1898507
	      0.2154360
	      0.1601257
	      0.1455407
	      0.6017103
	      0.5729670
	      0.1230483
	      0.1356647
	      0.1898522
	      0.1608640
	      0.1608622
	      0.1898502
	      0.1356670
	      0.1230491
	      0.5729478
	      0.5729644
	      0.1230471
	      0.1356627
	      0.1898496
	      0.1608611
	      0.1608594
	      0.1898476
	      0.1356650
	      0.1230478
	      0.5729452
	      0.6017252
	      0.1455394
	      0.1601217
	      0.2154349
	      0.1898490
	      0.1898474
	      0.2154330
	      0.1601236
	      0.1455396
	      0.6017055
	      0.5772711
	      0.1160641
	      0.1175054
	      0.1601260
	      0.1356672
	      0.1356659
	      0.1601246
	      0.1175074
	      0.1160647
	      0.5772530
	      0.5806559
	      0.1176918
	      0.1160622
	      0.1455404
	      0.1230488
	      0.1230480
	      0.1455397
	      0.1160640
	      0.1176921
	      0.5806404
	      1.0181517
	      0.5806428
	      0.5772495
	      0.6017027
	      0.5729398
	      0.5729378
	      0.6016987
	      0.5772461
	      0.5806352
	      1.0181270
