# vtk DataFile Version 3.0
test_file
ASCII
DATASET POLYDATA
POINTS 1000 float
   0.10000 	   -0.00000 	    0.00000
   0.10000 	   -0.00000 	    1.00000
   0.10000 	    0.00000 	    2.00000
   0.10000 	    0.00000 	    3.00000
   0.10000 	    0.00000 	    4.00000
   0.10000 	    0.00000 	    5.00000
   0.10000 	    0.00000 	    6.00000
   0.10000 	    0.00000 	    7.00000
   0.10000 	   -0.00000 	    8.00000
   0.10000 	    0.00000 	    9.00000
   0.10000 	    1.00000 	    0.00000
   0.10000 	    1.00000 	    1.00000
   0.10000 	    1.00000 	    2.00000
   0.10000 	    1.00000 	    3.00000
   0.10000 	    1.00000 	    4.00000
   0.10000 	    1.00000 	    5.00000
   0.10000 	    1.00000 	    6.00000
   0.10000 	    1.00000 	    7.00000
   0.10000 	    1.00000 	    8.00000
   0.10000 	    1.00000 	    9.00000
   0.10000 	    2.00000 	    0.00000
   0.10000 	    2.00000 	    1.00000
   0.10000 	    2.00000 	    2.00000
   0.10000 	    2.00000 	    3.00000
   0.10000 	    2.00000 	    4.00000
   0.10000 	    2.00000 	    5.00000
   0.10000 	    2.00000 	    6.00000
   0.10000 	    2.00000 	    7.00000
   0.10000 	    2.00000 	    8.00000
   0.10000 	    2.00000 	    9.00000
   0.10000 	    3.00000 	    0.00000
   0.10000 	    3.00000 	    1.00000
   0.10000 	    3.00000 	    2.00000
   0.10000 	    3.00000 	    3.00000
   0.10000 	    3.00000 	    4.00000
   0.10000 	    3.00000 	    5.00000
   0.10000 	    3.00000 	    6.00000
   0.10000 	    3.00000 	    7.00000
   0.10000 	    3.00000 	    8.00000
   0.10000 	    3.00000 	    9.00000
   0.10000 	    4.00000 	    0.00000
   0.10000 	    4.00000 	    1.00000
   0.10000 	    4.00000 	    2.00000
   0.10000 	    4.00000 	    3.00000
   0.10000 	    4.00000 	    4.00000
   0.10000 	    4.00000 	    5.00000
   0.10000 	    4.00000 	    6.00000
   0.10000 	    4.00000 	    7.00000
   0.10000 	    4.00000 	    8.00000
   0.10000 	    4.00000 	    9.00000
   0.10000 	    5.00000 	    0.00000
   0.10000 	    5.00000 	    1.00000
   0.10000 	    5.00000 	    2.00000
   0.10000 	    5.00000 	    3.00000
   0.10000 	    5.00000 	    4.00000
   0.10000 	    5.00000 	    5.00000
   0.10000 	    5.00000 	    6.00000
   0.10000 	    5.00000 	    7.00000
   0.10000 	    5.00000 	    8.00000
   0.10000 	    5.00000 	    9.00000
   0.10000 	    6.00000 	    0.00000
   0.10000 	    6.00000 	    1.00000
   0.10000 	    6.00000 	    2.00000
   0.10000 	    6.00000 	    3.00000
   0.10000 	    6.00000 	    4.00000
   0.10000 	    6.00000 	    5.00000
   0.10000 	    6.00000 	    6.00000
   0.10000 	    6.00000 	    7.00000
   0.10000 	    6.00000 	    8.00000
   0.10000 	    6.00000 	    9.00000
   0.10000 	    7.00000 	    0.00000
   0.10000 	    7.00000 	    1.00000
   0.10000 	    7.00000 	    2.00000
   0.10000 	    7.00000 	    3.00000
   0.10000 	    7.00000 	    4.00000
   0.10000 	    7.00000 	    5.00000
   0.10000 	    7.00000 	    6.00000
   0.10000 	    7.00000 	    7.00000
   0.10000 	    7.00000 	    8.00000
   0.10000 	    7.00000 	    9.00000
   0.10000 	    8.00000 	    0.00000
   0.10000 	    8.00000 	    1.00000
   0.10000 	    8.00000 	    2.00000
   0.10000 	    8.00000 	    3.00000
   0.10000 	    8.00000 	    4.00000
   0.10000 	    8.00000 	    5.00000
   0.10000 	    8.00000 	    6.00000
   0.10000 	    8.00000 	    7.00000
   0.10000 	    8.00000 	    8.00000
   0.10000 	    8.00000 	    9.00000
   0.10000 	    9.00000 	    0.00000
   0.10000 	    9.00000 	    1.00000
   0.10000 	    9.00000 	    2.00000
   0.10000 	    9.00000 	    3.00000
   0.10000 	    9.00000 	    4.00000
   0.10000 	    9.00000 	    5.00000
   0.10000 	    9.00000 	    6.00000
   0.10000 	    9.00000 	    7.00000
   0.10000 	    9.00000 	    8.00000
   0.10000 	    9.00000 	    9.00000
   1.09189 	   -0.01798 	   -0.01798
   1.09217 	   -0.01963 	    0.98830
   1.09207 	   -0.02044 	    1.99393
   1.09218 	   -0.02132 	    2.99561
   1.09187 	   -0.02164 	    3.99826
   1.09187 	   -0.02164 	    5.00174
   1.09218 	   -0.02132 	    6.00439
   1.09207 	   -0.02044 	    7.00607
   1.09217 	   -0.01963 	    8.01170
   1.09189 	   -0.01798 	    9.01798
   1.09217 	    0.98830 	   -0.01963
   1.09370 	    0.98511 	    0.98511
   1.09374 	    0.98380 	    1.99389
   1.09444 	    0.98283 	    2.99436
   1.09452 	    0.98292 	    3.99732
   1.09452 	    0.98292 	    5.00268
   1.09444 	    0.98283 	    6.00564
   1.09374 	    0.98380 	    7.00611
   1.09370 	    0.98511 	    8.01489
   1.09217 	    0.98830 	    9.01963
   1.09207 	    1.99393 	   -0.02044
   1.09374 	    1.99389 	    0.98380
   1.09180 	    1.99349 	    1.99349
   1.09153 	    1.99300 	    2.99379
   1.09182 	    1.99262 	    3.99707
   1.09182 	    1.99262 	    5.00293
   1.09153 	    1.99300 	    6.00621
   1.09180 	    1.99349 	    7.00651
   1.09374 	    1.99389 	    8.01620
   1.09207 	    1.99393 	    9.02044
   1.09218 	    2.99561 	   -0.02132
   1.09444 	    2.99436 	    0.98283
   1.09153 	    2.99378 	    1.99300
   1.09065 	    2.99325 	    2.99325
   1.09091 	    2.99280 	    3.99690
   1.09091 	    2.99280 	    5.00310
   1.09065 	    2.99325 	    6.00675
   1.09153 	    2.99379 	    7.00700
   1.09444 	    2.99436 	    8.01717
   1.09219 	    2.99561 	    9.02132
   1.09187 	    3.99826 	   -0.02164
   1.09452 	    3.99732 	    0.98292
   1.09182 	    3.99707 	    1.99262
   1.09091 	    3.99689 	    2.99280
   1.09131 	    3.99674 	    3.99674
   1.09131 	    3.99674 	    5.00326
   1.09091 	    3.99689 	    6.00720
   1.09182 	    3.99707 	    7.00737
   1.09452 	    3.99732 	    8.01708
   1.09187 	    3.99826 	    9.02164
   1.09187 	    5.00174 	   -0.02164
   1.09452 	    5.00267 	    0.98292
   1.09182 	    5.00293 	    1.99262
   1.09091 	    5.00310 	    2.99280
   1.09131 	    5.00326 	    3.99674
   1.09131 	    5.00326 	    5.00326
   1.09091 	    5.00310 	    6.00720
   1.09182 	    5.00293 	    7.00737
   1.09452 	    5.00267 	    8.01708
   1.09187 	    5.00174 	    9.02164
   1.09218 	    6.00439 	   -0.02132
   1.09444 	    6.00564 	    0.98283
   1.09153 	    6.00621 	    1.99300
   1.09065 	    6.00675 	    2.99325
   1.09091 	    6.00720 	    3.99690
   1.09091 	    6.00720 	    5.00310
   1.09065 	    6.00675 	    6.00675
   1.09153 	    6.00621 	    7.00700
   1.09444 	    6.00564 	    8.01717
   1.09219 	    6.00439 	    9.02132
   1.09207 	    7.00607 	   -0.02044
   1.09374 	    7.00611 	    0.98380
   1.09180 	    7.00651 	    1.99349
   1.09153 	    7.00700 	    2.99379
   1.09182 	    7.00737 	    3.99707
   1.09182 	    7.00737 	    5.00293
   1.09153 	    7.00700 	    6.00621
   1.09180 	    7.00651 	    7.00651
   1.09374 	    7.00611 	    8.01620
   1.09207 	    7.00607 	    9.02044
   1.09217 	    8.01170 	   -0.01963
   1.09370 	    8.01489 	    0.98511
   1.09374 	    8.01620 	    1.99389
   1.09444 	    8.01717 	    2.99436
   1.09452 	    8.01708 	    3.99732
   1.09452 	    8.01708 	    5.00268
   1.09444 	    8.01717 	    6.00564
   1.09374 	    8.01620 	    7.00611
   1.09370 	    8.01489 	    8.01489
   1.09217 	    8.01170 	    9.01962
   1.09189 	    9.01798 	   -0.01798
   1.09217 	    9.01962 	    0.98830
   1.09207 	    9.02044 	    1.99393
   1.09219 	    9.02132 	    2.99561
   1.09187 	    9.02164 	    3.99826
   1.09187 	    9.02164 	    5.00174
   1.09219 	    9.02132 	    6.00439
   1.09207 	    9.02044 	    7.00607
   1.09217 	    9.01962 	    8.01170
   1.09189 	    9.01798 	    9.01798
   2.07566 	   -0.02371 	   -0.02371
   2.07935 	   -0.02538 	    0.98120
   2.08015 	   -0.02742 	    1.98746
   2.07987 	   -0.02908 	    2.99234
   2.07961 	   -0.02990 	    3.99748
   2.07961 	   -0.02990 	    5.00252
   2.07987 	   -0.02908 	    6.00766
   2.08015 	   -0.02742 	    7.01254
   2.07935 	   -0.02538 	    8.01880
   2.07566 	   -0.02370 	    9.02371
   2.07935 	    0.98120 	   -0.02538
   2.09102 	    0.97899 	    0.97899
   2.09420 	    0.97592 	    1.98869
   2.09317 	    0.97369 	    2.99301
   2.09280 	    0.97296 	    3.99774
   2.09280 	    0.97296 	    5.00226
   2.09317 	    0.97369 	    6.00699
   2.09420 	    0.97592 	    7.01130
   2.09102 	    0.97899 	    8.02101
   2.07935 	    0.98120 	    9.02538
   2.08015 	    1.98746 	   -0.02742
   2.09420 	    1.98869 	    0.97592
   2.09756 	    1.98845 	    1.98846
   2.09577 	    1.98655 	    2.99334
   2.09536 	    1.98566 	    3.99791
   2.09536 	    1.98566 	    5.00209
   2.09577 	    1.98655 	    6.00665
   2.09756 	    1.98845 	    7.01154
   2.09420 	    1.98869 	    8.02408
   2.08015 	    1.98746 	    9.02742
   2.07987 	    2.99234 	   -0.02908
   2.09317 	    2.99301 	    0.97369
   2.09577 	    2.99334 	    1.98655
   2.09333 	    2.99241 	    2.99241
   2.09276 	    2.99204 	    3.99767
   2.09276 	    2.99204 	    5.00233
   2.09333 	    2.99241 	    6.00759
   2.09577 	    2.99334 	    7.01345
   2.09317 	    2.99301 	    8.02631
   2.07987 	    2.99234 	    9.02908
   2.07961 	    3.99748 	   -0.02990
   2.09280 	    3.99774 	    0.97296
   2.09536 	    3.99791 	    1.98566
   2.09276 	    3.99767 	    2.99204
   2.09220 	    3.99759 	    3.99759
   2.09220 	    3.99759 	    5.00241
   2.09276 	    3.99767 	    6.00796
   2.09536 	    3.99791 	    7.01434
   2.09280 	    3.99774 	    8.02704
   2.07961 	    3.99748 	    9.02990
   2.07961 	    5.00252 	   -0.02990
   2.09280 	    5.00226 	    0.97296
   2.09536 	    5.00209 	    1.98566
   2.09276 	    5.00233 	    2.99204
   2.09220 	    5.00241 	    3.99759
   2.09220 	    5.00241 	    5.00241
   2.09276 	    5.00233 	    6.00796
   2.09536 	    5.00209 	    7.01434
   2.09280 	    5.00226 	    8.02704
   2.07961 	    5.00252 	    9.02990
   2.07987 	    6.00766 	   -0.02908
   2.09317 	    6.00699 	    0.97369
   2.09577 	    6.00665 	    1.98655
   2.09333 	    6.00759 	    2.99241
   2.09276 	    6.00796 	    3.99767
   2.09276 	    6.00796 	    5.00233
   2.09333 	    6.00759 	    6.00759
   2.09577 	    6.00665 	    7.01345
[...]
POINT_DATA 1000
SCALARS C float
LOOKUP_TABLE default
	      0.6244080
	      0.3704613
	      0.3315346
	      0.3400085
	      0.3431625
	      0.3431610
	      0.3400061
	      0.3315319
	      0.3704547
	      0.6243931
	      0.3704589
	      0.1498090
	      0.1164690
	      0.1213555
	      0.1228856
	      0.1228846
	      0.1213546
	      0.1164688
	      0.1498061
	      0.3704492
	      0.3315308
	      0.1164680
	      0.0877216
	      0.0975784
	      0.1006564
	      0.1006553
	      0.0975780
	      0.0877222
	      0.1164658
	      0.3315212
	      0.3400044
	      0.1213545
	      0.0975785
	      0.1129473
	      0.1176491
	      0.1176478
	      0.1129468
	      0.0975792
	      0.1213520
	      0.3399942
	      0.3431583
	      0.1228846
	      0.1006565
	      0.1176491
	      0.1224372
	      0.1224358
	      0.1176483
	      0.1006571
	      0.1228819
	      0.3431480
	      0.3431566
	      0.1228833
	      0.1006550
	      0.1176474
	      0.1224352
	      0.1224339
	      0.1176466
	      0.1006556
	      0.1228806
	      0.3431462
	      0.3400020
	      0.1213534
	      0.0975777
	      0.1129464
	      0.1176478
	      0.1176466
	      0.1129458
	      0.0975784
	      0.1213510
	      0.3399919
	      0.3315282
	      0.1164677
	      0.0877220
	      0.0975789
	      0.1006568
	      0.1006557
	      0.0975785
	      0.0877227
	      0.1164655
	      0.3315186
	      0.3704507
	      0.1498045
	      0.1164647
	      0.1213508
	      0.1228807
	      0.1228796
	      0.1213499
	      0.1164645
	      0.1498016
	      0.3704410
	      0.6243877
	      0.3704452
	      0.3315175
	      0.3399902
	      0.3431436
	      0.3431421
	      0.3399878
	      0.3315148
	      0.3704386
	      0.6243728
	      0.0641013
	      0.0469240
	      0.0464927
	      0.0515775
	      0.0519924
	      0.0519922
	      0.0515772
	      0.0464927
	      0.0469239
	      0.0641003
	      0.0469241
	      0.0465905
	      0.0443372
	      0.0503175
	      0.0533453
	      0.0533450
	      0.0503172
	      0.0443371
	      0.0465909
	      0.0469237
	      0.0464927
	      0.0443371
	      0.0334398
	      0.0359752
	      0.0394513
	      0.0394509
	      0.0359748
	      0.0334394
	      0.0443374
	      0.0464925
	      0.0515774
	      0.0503175
	      0.0359751
	      0.0375519
	      0.0419005
	      0.0419001
	      0.0375514
	      0.0359746
	      0.0503177
	      0.0515773
	      0.0519924
	      0.0533453
	      0.0394512
	      0.0419005
	      0.0474343
	      0.0474339
	      0.0419000
	      0.0394508
	      0.0533457
	      0.0519924
	      0.0519922
	      0.0533449
	      0.0394507
	      0.0419000
	      0.0474337
	      0.0474333
	      0.0418994
	      0.0394503
	      0.0533453
	      0.0519921
	      0.0515771
	      0.0503171
	      0.0359745
	      0.0375512
	      0.0418998
	      0.0418994
	      0.0375507
	      0.0359741
	      0.0503173
	      0.0515769
	      0.0464925
	      0.0443370
	      0.0334391
	      0.0359744
	      0.0394505
	      0.0394502
	      0.0359740
	      0.0334387
	      0.0443372
	      0.0464923
	      0.0469238
	      0.0465911
	      0.0443373
	      0.0503176
	      0.0533456
	      0.0533453
	      0.0503173
	      0.0443371
	      0.0465916
	      0.0469234
	      0.0641002
	      0.0469236
	      0.0464923
	      0.0515771
	      0.0519923
	      0.0519921
	      0.0515769
	      0.0464923
	      0.0469235
	      0.0640991
	      0.1249792
	      0.0919914
	      0.0835104
	      0.0822207
	      0.0813270
	      0.0813269
	      0.0822202
	      0.0835098
	      0.0919905
	      0.1249774
	      0.0919914
	      0.0701229
	      0.0677466
	      0.0650348
	      0.0655129
	      0.0655128
	      0.0650345
	      0.0677461
	      0.0701227
	      0.0919902
	      0.0835104
	      0.0677467
	      0.0753605
	      0.0732889
	      0.0731518
	      0.0731515
	      0.0732888
	      0.0753602
	      0.0677465
	      0.0835088
	      0.0822205
	      0.0650345
	      0.0732887
	      0.0700158
	      0.0694789
	      0.0694787
	      0.0700156
	      0.0732883
	      0.0650337
	      0.0822189
	      0.0813267
	      0.0655125
	      0.0731516
	      0.0694789
	      0.0692521
	      0.0692518
	      0.0694787
	      0.0731512
	      0.0655118
	      0.0813253
	      0.0813264
	      0.0655125
	      0.0731512
	      0.0694785
	      0.0692517
	      0.0692514
	      0.0694783
	      0.0731509
	      0.0655118
	      0.0813250
	      0.0822197
	      0.0650342
	      0.0732885
	      0.0700154
	      0.0694785
	      0.0694783
	      0.0700153
	      0.0732881
	      0.0650335
	      0.0822182
	      0.0835092
	      0.0677457
	      0.0753597
	      0.0732880
	      0.0731509
	      0.0731507
	      0.0732879
	      0.0753595
	      0.0677456
	      0.0835076
	      0.0919898
	      0.0701229
	      0.0677462
	      0.0650334
	      0.0655115
	      0.0655114
	      0.0650331
	      0.0677456
	      0.0701227
	      0.0919886
	      0.1249770
	      0.0919896
	      0.0835082
	      0.0822184
	      0.0813248
	      0.0813246
	      0.0822179
	      0.0835076
	      0.0919887
	      0.1249752
	      0.1233069
	      0.0970873
	      0.0921168
	      0.0913516
	      0.0913346
	      0.0913344
	      0.0913512
	      0.0921162
	      0.0970866
	      0.1233057
	      0.0970875
	      0.0734231
	      0.0683090
	      0.0645512
	      0.0661659
	      0.0661659
	      0.0645509
	      0.0683083
	      0.0734226
	      0.0970871
	      0.0921170
	      0.0683093
	      0.0797303
	      0.0787575
	      0.0799621
	      0.0799622
	      0.0787576
	      0.0797299
	      0.0683087
	      0.0921159
	      0.0913517
	      0.0645510
	      0.0787573
	      0.0765310
	      0.0770777
	      0.0770778
	      0.0765310
	      0.0787567
	      0.0645494
	      0.0913505
	      0.0913345
	      0.0661654
	      0.0799618
	      0.0770776
	      0.0778224
	      0.0778225
	      0.0770776
	      0.0799612
	      0.0661639
	      0.0913336
	      0.0913342
	      0.0661656
	      0.0799618
	      0.0770776
	      0.0778225
	      0.0778226
	      0.0770776
	      0.0799612
	      0.0661640
	      0.0913333
	      0.0913508
	      0.0645506
	      0.0787572
	      0.0765308
	      0.0770774
	      0.0770775
	      0.0765308
	      0.0787566
	      0.0645490
	      0.0913497
	      0.0921156
	      0.0683078
	      0.0797294
	      0.0787563
	      0.0799608
	      0.0799609
	      0.0787563
	      0.0797290
	      0.0683072
	      0.0921145
	      0.0970860
	      0.0734224
	      0.0683082
	      0.0645491
	      0.0661635
	      0.0661636
	      0.0645488
	      0.0683074
	      0.0734219
	      0.0970856
	      0.1233057
	      0.0970865
	      0.0921153
	      0.0913502
	      0.0913333
	      0.0913332
	      0.0913497
	      0.0921147
	      0.0970858
	      0.1233046
	      0.1063061
	      0.0875598
	      0.0868965
	      0.0895368
	      0.0910348
	      0.0910348
	      0.0895366
	      0.0868962
	      0.0875595
	      0.1063056
	      0.0875600
	      0.0752961
	      0.0720165
	      0.0729966
	      0.0766075
	      0.0766076
	      0.0729963
	      0.0720159
	      0.0752964
	      0.0875607
	      0.0868969
	      0.0720165
	      0.0646040
	      0.0676817
	      0.0716171
	      0.0716171
	      0.0676815
	      0.0646035
	      0.0720169
	      0.0868976
	      0.0895373
	      0.0729966
	      0.0676815
	      0.0701952
	      0.0738046
	      0.0738047
	      0.0701949
	      0.0676807
	      0.0729962
	      0.0895380
	      0.0910353
	      0.0766075
	      0.0716169
	      0.0738045
	      0.0776363
	      0.0776364
	      0.0738042
	      0.0716161
	      0.0766070
	      0.0910361
	      0.0910350
	      0.0766076
	      0.0716169
	      0.0738045
	      0.0776364
	      0.0776364
	      0.0738042
	      0.0716161
	      0.0766072
	      0.0910359
	      0.0895367
	      0.0729963
	      0.0676812
	      0.0701947
	      0.0738040
	      0.0738041
	      0.0701944
	      0.0676804
	      0.0729958
	      0.0895374
	      0.0868962
	      0.0720158
	      0.0646031
	      0.0676804
	      0.0716158
	      0.0716158
	      0.0676802
	      0.0646026
	      0.0720162
	      0.0868969
	      0.0875594
	      0.0752968
	      0.0720167
	      0.0729961
	      0.0766071
	      0.0766071
	      0.0729958
	      0.0720161
	      0.0752971
	      0.0875601
	      0.1063061
	      0.0875606
	      0.0868975
	      0.0895381
	      0.0910364
	      0.0910363
	      0.0895379
	      0.0868972
	      0.0875604
	      0.1063056
	      0.1002076
	      0.0818886
	      0.0801094
	      0.0815687
	      0.0824234
	      0.0824234
	      0.0815685
	      0.0801091
	      0.0818882
	      0.1002069
	      0.0818888
	      0.0658765
	      0.0673863
	      0.0681279
	      0.0700087
	      0.0700087
	      0.0681277
	      0.0673859
	      0.0658768
	      0.0818888
	      0.0801097
	      0.0673864
	      0.0693147
	      0.0731276
	      0.0753053
	      0.0753052
	      0.0731273
	      0.0693144
	      0.0673870
	      0.0801094
	      0.0815690
	      0.0681279
	      0.0731274
	      0.0769200
	      0.0787942
	      0.0787941
	      0.0769196
	      0.0731268
	      0.0681279
	      0.0815684
	      0.0824236
	      0.0700087
	      0.0753050
	      0.0787940
	      0.0808064
	      0.0808064
	      0.0787937
	      0.0753044
	      0.0700086
	      0.0824232
	      0.0824235
	      0.0700088
	      0.0753050
	      0.0787939
	      0.0808063
	      0.0808063
	      0.0787936
	      0.0753044
	      0.0700087
	      0.0824230
	      0.0815684
	      0.0681277
	      0.0731270
	      0.0769193
	      0.0787935
	      0.0787934
	      0.0769190
	      0.0731264
	      0.0681276
	      0.0815679
	      0.0801088
	      0.0673858
	      0.0693140
	      0.0731265
	      0.0753042
	      0.0753041
	      0.0731262
	      0.0693136
	      0.0673864
	      0.0801085
	      0.0818879
	      0.0658772
	      0.0673869
	      0.0681279
	      0.0700087
	      0.0700087
	      0.0681276
	      0.0673865
	      0.0658776
	      0.0818879
	      0.1002072
	      0.0818885
	      0.0801091
	      0.0815683
	      0.0824232
	      0.0824232
	      0.0815682
	      0.0801088
	      0.0818882
	      0.1002065
	      0.1170976
	      0.0928612
	      0.0873364
	      0.0853715
	      0.0844146
	      0.0844145
	      0.0853712
	      0.0873357
	      0.0928604
	      0.1170962
	      0.0928614
	      0.0712139
	      0.0707911
	      0.0674841
	      0.0660050
	      0.0660050
	      0.0674838
	      0.0707905
	      0.0712135
	      0.0928604
	      0.0873365
	      0.0707912
	      0.0804135
	      0.0807563
	      0.0790064
	      0.0790063
	      0.0807561
	      0.0804131
	      0.0707911
	      0.0873347
	      0.0853714
	      0.0674839
	      0.0807562
	      0.0808950
	      0.0785301
	      0.0785300
	      0.0808946
	      0.0807556
	      0.0674831
	      0.0853693
	      0.0844143
	      0.0660047
	      0.0790061
	      0.0785300
	      0.0760768
	      0.0760767
	      0.0785296
	      0.0790055
	      0.0660038
	      0.0844124
	      0.0844141
	      0.0660047
	      0.0790059
	      0.0785297
	      0.0760765
	      0.0760765
	      0.0785294
	      0.0790053
	      0.0660038
	      0.0844122
	      0.0853707
	      0.0674834
	      0.0807556
	      0.0808942
	      0.0785293
	      0.0785292
	      0.0808939
	      0.0807551
	      0.0674826
	      0.0853686
	      0.0873351
	      0.0707900
	      0.0804126
	      0.0807552
	      0.0790052
	      0.0790050
	      0.0807549
	      0.0804121
	      0.0707898
	      0.0873333
	      0.0928597
	      0.0712135
	      0.0707906
	      0.0674827
	      0.0660035
	      0.0660035
	      0.0674824
	      0.0707900
	      0.0712131
	      0.0928587
	      0.1170960
	      0.0928597
	      0.0873341
	      0.0853688
	      0.0844119
	      0.0844119
	      0.0853684
	      0.0873334
	      0.0928589
	      0.1170946
	      0.1252254
	      0.0951622
	      0.0880824
	      0.0869153
	      0.0856852
	      0.0856851
	      0.0869148
	      0.0880817
	      0.0951612
	      0.1252236
	      0.0951623
	      0.0753036
	      0.0722203
	      0.0707282
	      0.0689741
	      0.0689739
	      0.0707278
	      0.0722197
	      0.0753033
	      0.0951612
	      0.0880824
	      0.0722202
	      0.0703817
	      0.0699275
	      0.0681777
	      0.0681774
	      0.0699272
	      0.0703813
	      0.0722201
	      0.0880810
	      0.0869150
	      0.0707279
	      0.0699273
	      0.0693128
	      0.0671572
	      0.0671570
	      0.0693125
	      0.0699269
	      0.0707274
	      0.0869134
	      0.0856849
	      0.0689738
	      0.0681775
	      0.0671571
	      0.0649216
	      0.0649213
	      0.0671568
	      0.0681770
	      0.0689732
	      0.0856833
	      0.0856846
	      0.0689736
	      0.0681771
	      0.0671567
	      0.0649211
	      0.0649208
	      0.0671563
	      0.0681766
	      0.0689731
	      0.0856831
	      0.0869143
	      0.0707275
	      0.0699268
	      0.0693122
	      0.0671565
	      0.0671562
	      0.0693118
	      0.0699264
	      0.0707270
	      0.0869127
	      0.0880811
	      0.0722193
	      0.0703809
	      0.0699265
	      0.0681767
	      0.0681764
	      0.0699262
	      0.0703805
	      0.0722192
	      0.0880797
	      0.0951606
	      0.0753035
	      0.0722197
	      0.0707270
	      0.0689729
	      0.0689728
	      0.0707266
	      0.0722192
	      0.0753031
	      0.0951596
	      0.1252233
	      0.0951606
	      0.0880804
	      0.0869129
	      0.0856829
	      0.0856827
	      0.0869124
	      0.0880797
	      0.0951597
	      0.1252214
	      0.0631767
	      0.0457744
	      0.0455404
	      0.0504345
	      0.0509393
	      0.0509391
	      0.0504342
	      0.0455403
	      0.0457743
	      0.0631755
	      0.0457745
	      0.0361401
	      0.0373005
	      0.0444865
	      0.0455091
	      0.0455088
	      0.0444861
	      0.0373004
	      0.0361405
	      0.0457740
	      0.0455404
	      0.0373005
	      0.0369388
	      0.0432351
	      0.0441121
	      0.0441118
	      0.0432347
	      0.0369385
	      0.0373007
	      0.0455396
	      0.0504344
	      0.0444864
	      0.0432351
	      0.0481564
	      0.0490066
	      0.0490062
	      0.0481559
	      0.0432348
	      0.0444866
	      0.0504334
	      0.0509391
	      0.0455091
	      0.0441120
	      0.0490065
	      0.0502927
	      0.0502924
	      0.0490060
	      0.0441117
	      0.0455093
	      0.0509381
	      0.0509389
	      0.0455088
	      0.0441116
	      0.0490060
	      0.0502922
	      0.0502919
	      0.0490055
	      0.0441113
	      0.0455090
	      0.0509379
	      0.0504340
	      0.0444860
	      0.0432345
	      0.0481557
	      0.0490058
	      0.0490055
	      0.0481552
	      0.0432342
	      0.0444862
	      0.0504330
	      0.0455400
	      0.0373003
	      0.0369383
	      0.0432346
	      0.0441115
	      0.0441113
	      0.0432341
	      0.0369381
	      0.0373006
	      0.0455392
	      0.0457740
	      0.0361408
	      0.0373006
	      0.0444865
	      0.0455092
	      0.0455090
	      0.0444861
	      0.0373006
	      0.0361413
	      0.0457735
	      0.0631754
	      0.0457737
	      0.0455393
	      0.0504331
	      0.0509380
	      0.0509378
	      0.0504328
	      0.0455392
	      0.0457736
	      0.0631742
	      0.5933572
	      0.3599638
	      0.3148672
	      0.3152051
	      0.3172246
	      0.3172234
	      0.3152027
	      0.3148640
	      0.3599572
	      0.5933423
	      0.3599617
	      0.1659735
	      0.1291349
	      0.1282266
	      0.1295837
	      0.1295830
	      0.1282256
	      0.1291340
	      0.1659705
	      0.3599521
	      0.3148638
	      0.1291340
	      0.0954637
	      0.0982113
	      0.1013388
	      0.1013381
	      0.0982106
	      0.0954635
	      0.1291316
	      0.3148545
	      0.3152012
	      0.1282255
	      0.0982112
	      0.1057691
	      0.1109456
	      0.1109448
	      0.1057684
	      0.0982110
	      0.1282230
	      0.3151912
	      0.3172205
	      0.1295825
	      0.1013386
	      0.1109455
	      0.1167972
	      0.1167964
	      0.1109447
	      0.1013384
	      0.1295799
	      0.3172102
	      0.3172191
	      0.1295816
	      0.1013376
	      0.1109443
	      0.1167960
	      0.1167952
	      0.1109435
	      0.1013374
	      0.1295790
	      0.3172088
	      0.3151987
	      0.1282243
	      0.0982102
	      0.1057679
	      0.1109442
	      0.1109434
	      0.1057672
	      0.0982100
	      0.1282218
	      0.3151887
	      0.3148602
	      0.1291327
	      0.0954630
	      0.0982105
	      0.1013379
	      0.1013372
	      0.0982099
	      0.0954628
	      0.1291303
	      0.3148508
	      0.3599531
	      0.1659686
	      0.1291303
	      0.1282217
	      0.1295785
	      0.1295778
	      0.1282207
	      0.1291294
	      0.1659656
	      0.3599434
	      0.5933367
	      0.3599480
	      0.3148506
	      0.3151871
	      0.3172058
	      0.3172047
	      0.3151848
	      0.3148475
	      0.3599413
	      0.5933218
