# vtk DataFile Version 3.0
test_file
ASCII
DATASET POLYDATA
POINTS 1000 float
   1.17500 	   -0.00000 	    0.00000
   1.17500 	   -0.00000 	    1.00000
   1.17500 	    0.00000 	    2.00000
   1.17500 	    0.00000 	    3.00000
   1.17500 	    0.00000 	    4.00000
   1.17500 	    0.00000 	    5.00000
   1.17500 	    0.00000 	    6.00000
   1.17500 	    0.00000 	    7.00000
   1.17500 	   -0.00000 	    8.00000
   1.17500 	    0.00000 	    9.00000
   1.17500 	    1.00000 	    0.00000
   1.17500 	    1.00000 	    1.00000
   1.17500 	    1.00000 	    2.00000
   1.17500 	    1.00000 	    3.00000
   1.17500 	    1.00000 	    4.00000
   1.17500 	    1.00000 	    5.00000
   1.17500 	    1.00000 	    6.00000
   1.17500 	    1.00000 	    7.00000
   1.17500 	    1.00000 	    8.00000
   1.17500 	    1.00000 	    9.00000
   1.17500 	    2.00000 	    0.00000
   1.17500 	    2.00000 	    1.00000
   1.17500 	    2.00000 	    2.00000
   1.17500 	    2.00000 	    3.00000
   1.17500 	    2.00000 	    4.00000
   1.17500 	    2.00000 	    5.00000
   1.17500 	    2.00000 	    6.00000
   1.17500 	    2.00000 	    7.00000
   1.17500 	    2.00000 	    8.00000
   1.17500 	    2.00000 	    9.00000
   1.17500 	    3.00000 	    0.00000
   1.17500 	    3.00000 	    1.00000
   1.17500 	    3.00000 	    2.00000
   1.17500 	    3.00000 	    3.00000
   1.17500 	    3.00000 	    4.00000
   1.17500 	    3.00000 	    5.00000
   1.17500 	    3.00000 	    6.00000
   1.17500 	    3.00000 	    7.00000
   1.17500 	    3.00000 	    8.00000
   1.17500 	    3.00000 	    9.00000
   1.17500 	    4.00000 	    0.00000
   1.17500 	    4.00000 	    1.00000
   1.17500 	    4.00000 	    2.00000
   1.17500 	    4.00000 	    3.00000
   1.17500 	    4.00000 	    4.00000
   1.17500 	    4.00000 	    5.00000
   1.17500 	    4.00000 	    6.00000
   1.17500 	    4.00000 	    7.00000
   1.17500 	    4.00000 	    8.00000
   1.17500 	    4.00000 	    9.00000
   1.17500 	    5.00000 	    0.00000
   1.17500 	    5.00000 	    1.00000
   1.17500 	    5.00000 	    2.00000
   1.17500 	    5.00000 	    3.00000
   1.17500 	    5.00000 	    4.00000
   1.17500 	    5.00000 	    5.00000
   1.17500 	    5.00000 	    6.00000
   1.17500 	    5.00000 	    7.00000
   1.17500 	    5.00000 	    8.00000
   1.17500 	    5.00000 	    9.00000
   1.17500 	    6.00000 	    0.00000
   1.17500 	    6.00000 	    1.00000
   1.17500 	    6.00000 	    2.00000
   1.17500 	    6.00000 	    3.00000
   1.17500 	    6.00000 	    4.00000
   1.17500 	    6.00000 	    5.00000
   1.17500 	    6.00000 	    6.00000
   1.17500 	    6.00000 	    7.00000
   1.17500 	    6.00000 	    8.00000
   1.17500 	    6.00000 	    9.00000
   1.17500 	    7.00000 	    0.00000
   1.17500 	    7.00000 	    1.00000
   1.17500 	    7.00000 	    2.00000
   1.17500 	    7.00000 	    3.00000
   1.17500 	    7.00000 	    4.00000
   1.17500 	    7.00000 	    5.00000
   1.17500 	    7.00000 	    6.00000
   1.17500 	    7.00000 	    7.00000
   1.17500 	    7.00000 	    8.00000
   1.17500 	    7.00000 	    9.00000
   1.17500 	    8.00000 	    0.00000
   1.17500 	    8.00000 	    1.00000
   1.17500 	    8.00000 	    2.00000
   1.17500 	    8.00000 	    3.00000
   1.17500 	    8.00000 	    4.00000
   1.17500 	    8.00000 	    5.00000
   1.17500 	    8.00000 	    6.00000
   1.17500 	    8.00000 	    7.00000
   1.17500 	    8.00000 	    8.00000
   1.17500 	    8.00000 	    9.00000
   1.17500 	    9.00000 	    0.00000
   1.17500 	    9.00000 	    1.00000
   1.17500 	    9.00000 	    2.00000
   1.17500 	    9.00000 	    3.00000
   1.17500 	    9.00000 	    4.00000
   1.17500 	    9.00000 	    5.00000
   1.17500 	    9.00000 	    6.00000
   1.17500 	    9.00000 	    7.00000
   1.17500 	    9.00000 	    8.00000
   1.17500 	    9.00000 	    9.00000
   2.19559 	   -0.23054 	   -0.23054
   2.18134 	   -0.24870 	    0.88125
   2.17997 	   -0.24800 	    1.93491
   2.18847 	   -0.25520 	    2.94846
   2.18204 	   -0.25417 	    3.98076
   2.18204 	   -0.25417 	    5.01923
   2.18847 	   -0.25520 	    6.05153
   2.17997 	   -0.24800 	    7.06509
   2.18134 	   -0.24869 	    8.11875
   2.19559 	   -0.23053 	    9.23053
   2.18134 	    0.88125 	   -0.24870
   2.13728 	    0.84191 	    0.84191
   2.12630 	    0.85730 	    1.91455
   2.12972 	    0.85261 	    2.92199
   2.12813 	    0.85684 	    3.97028
   2.12813 	    0.85684 	    5.02971
   2.12972 	    0.85261 	    6.07800
   2.12630 	    0.85730 	    7.08544
   2.13728 	    0.84191 	    8.15808
   2.18134 	    0.88125 	    9.24869
   2.17997 	    1.93491 	   -0.24800
   2.12630 	    1.91455 	    0.85730
   2.13765 	    1.91962 	    1.91962
   2.13678 	    1.91993 	    2.90907
   2.13919 	    1.92041 	    3.96499
   2.13919 	    1.92041 	    5.03500
   2.13678 	    1.91993 	    6.09092
   2.13765 	    1.91962 	    7.08037
   2.12630 	    1.91455 	    8.14269
   2.17997 	    1.93491 	    9.24799
   2.18847 	    2.94846 	   -0.25519
   2.12972 	    2.92199 	    0.85261
   2.13678 	    2.90907 	    1.91993
   2.13295 	    2.90690 	    2.90690
   2.13533 	    2.90593 	    3.96454
   2.13533 	    2.90593 	    5.03545
   2.13295 	    2.90690 	    6.09309
   2.13678 	    2.90907 	    7.08006
   2.12972 	    2.92199 	    8.14738
   2.18847 	    2.94846 	    9.25519
   2.18204 	    3.98076 	   -0.25417
   2.12813 	    3.97027 	    0.85685
   2.13919 	    3.96499 	    1.92042
   2.13533 	    3.96454 	    2.90594
   2.13756 	    3.96447 	    3.96447
   2.13756 	    3.96447 	    5.03552
   2.13533 	    3.96454 	    6.09405
   2.13919 	    3.96499 	    7.07958
   2.12813 	    3.97027 	    8.14315
   2.18204 	    3.98076 	    9.25416
   2.18204 	    5.01923 	   -0.25417
   2.12813 	    5.02971 	    0.85685
   2.13919 	    5.03499 	    1.92042
   2.13533 	    5.03544 	    2.90594
   2.13756 	    5.03551 	    3.96447
   2.13756 	    5.03551 	    5.03552
   2.13533 	    5.03544 	    6.09405
   2.13919 	    5.03499 	    7.07958
   2.12813 	    5.02971 	    8.14314
   2.18204 	    5.01923 	    9.25416
   2.18847 	    6.05153 	   -0.25519
   2.12972 	    6.07799 	    0.85261
   2.13678 	    6.09091 	    1.91993
   2.13295 	    6.09308 	    2.90690
   2.13533 	    6.09405 	    3.96454
   2.13533 	    6.09405 	    5.03545
   2.13295 	    6.09308 	    6.09309
   2.13678 	    6.09091 	    7.08006
   2.12972 	    6.07799 	    8.14738
   2.18847 	    6.05153 	    9.25518
   2.17997 	    7.06509 	   -0.24799
   2.12630 	    7.08544 	    0.85731
   2.13765 	    7.08037 	    1.91963
   2.13678 	    7.08006 	    2.90907
   2.13919 	    7.07958 	    3.96499
   2.13919 	    7.07958 	    5.03500
   2.13678 	    7.08006 	    6.09091
   2.13765 	    7.08037 	    7.08037
   2.12629 	    7.08544 	    8.14268
   2.17997 	    7.06508 	    9.24799
   2.18134 	    8.11874 	   -0.24869
   2.13727 	    8.15808 	    0.84191
   2.12630 	    8.14268 	    1.91455
   2.12972 	    8.14737 	    2.92199
   2.12813 	    8.14314 	    3.97028
   2.12813 	    8.14314 	    5.02971
   2.12972 	    8.14737 	    6.07800
   2.12629 	    8.14268 	    7.08544
   2.13727 	    8.15808 	    8.15808
   2.18134 	    8.11874 	    9.24868
   2.19559 	    9.23053 	   -0.23053
   2.18134 	    9.24869 	    0.88126
   2.17997 	    9.24799 	    1.93491
   2.18847 	    9.25518 	    2.94847
   2.18204 	    9.25416 	    3.98077
   2.18204 	    9.25415 	    5.01923
   2.18847 	    9.25518 	    6.05153
   2.17997 	    9.24798 	    7.06508
   2.18134 	    9.24868 	    8.11874
   2.19559 	    9.23052 	    9.23052
   2.90428 	   -0.32702 	   -0.32702
   2.95544 	   -0.34434 	    0.75782
   2.97319 	   -0.35597 	    1.83988
   2.97376 	   -0.36746 	    2.90200
   2.96871 	   -0.37421 	    3.96795
   2.96871 	   -0.37421 	    5.03204
   2.97376 	   -0.36746 	    6.09799
   2.97319 	   -0.35597 	    7.16011
   2.95544 	   -0.34434 	    8.24218
   2.90429 	   -0.32702 	    9.32702
   2.95544 	    0.75781 	   -0.34434
   3.05748 	    0.72930 	    0.72930
   3.09325 	    0.71597 	    1.84770
   3.09300 	    0.70643 	    2.90958
   3.08652 	    0.69529 	    3.97103
   3.08652 	    0.69529 	    5.02896
   3.09300 	    0.70643 	    6.09041
   3.09325 	    0.71597 	    7.15229
   3.05749 	    0.72930 	    8.27069
   2.95545 	    0.75782 	    9.34433
   2.97319 	    1.83988 	   -0.35597
   3.09326 	    1.84770 	    0.71597
   3.11607 	    1.85010 	    1.85010
   3.10531 	    1.84517 	    2.91066
   3.08904 	    1.83299 	    3.96859
   3.08904 	    1.83299 	    5.03139
   3.10531 	    1.84517 	    6.08933
   3.11607 	    1.85010 	    7.14989
   3.09326 	    1.84770 	    8.28402
   2.97319 	    1.83988 	    9.35595
   2.97376 	    2.90200 	   -0.36745
   3.09300 	    2.90958 	    0.70643
   3.10531 	    2.91066 	    1.84518
   3.09088 	    2.90829 	    2.90829
   3.07361 	    2.90267 	    3.96714
   3.07361 	    2.90267 	    5.03285
   3.09088 	    2.90829 	    6.09170
   3.10531 	    2.91066 	    7.15481
   3.09300 	    2.90958 	    8.29356
   2.97376 	    2.90200 	    9.36744
   2.96872 	    3.96794 	   -0.37420
   3.08652 	    3.97102 	    0.69529
   3.08904 	    3.96859 	    1.83300
   3.07361 	    3.96714 	    2.90267
   3.05432 	    3.96549 	    3.96550
   3.05431 	    3.96549 	    5.03449
   3.07361 	    3.96714 	    6.09732
   3.08904 	    3.96859 	    7.16699
   3.08652 	    3.97102 	    8.30469
   2.96872 	    3.96795 	    9.37419
   2.96871 	    5.03204 	   -0.37420
   3.08652 	    5.02896 	    0.69529
   3.08904 	    5.03139 	    1.83300
   3.07361 	    5.03284 	    2.90267
   3.05431 	    5.03448 	    3.96550
   3.05431 	    5.03448 	    5.03449
   3.07361 	    5.03284 	    6.09732
   3.08904 	    5.03139 	    7.16699
   3.08652 	    5.02896 	    8.30469
   2.96872 	    5.03204 	    9.37419
   2.97376 	    6.09798 	   -0.36745
   3.09300 	    6.09040 	    0.70643
   3.10531 	    6.08932 	    1.84518
   3.09088 	    6.09169 	    2.90829
   3.07361 	    6.09731 	    3.96714
   3.07361 	    6.09731 	    5.03285
   3.09087 	    6.09169 	    6.09170
   3.10530 	    6.08932 	    7.15481
[...]
POINT_DATA 1000
SCALARS C float
LOOKUP_TABLE default
	      1.6021328
	      0.8962641
	      0.9114079
	      0.9504324
	      0.9006727
	      0.9006687
	      0.9504258
	      0.9114072
	      0.8962578
	      1.6020990
	      0.8962562
	      0.1127257
	      0.1296358
	      0.1883408
	      0.1457200
	      0.1457175
	      0.1883379
	      0.1296411
	      0.1127279
	      0.8962348
	      0.9113981
	      0.1296357
	      0.1517493
	      0.2363900
	      0.1881950
	      0.1881920
	      0.2363859
	      0.1517548
	      0.1296399
	      0.9113723
	      0.9504234
	      0.1883425
	      0.2363923
	      0.3426347
	      0.2908506
	      0.2908474
	      0.3426298
	      0.2363970
	      0.1883465
	      0.9503961
	      0.9006628
	      0.1457213
	      0.1881970
	      0.2908502
	      0.2325231
	      0.2325200
	      0.2908454
	      0.1882018
	      0.1457257
	      0.9006361
	      0.9006579
	      0.1457177
	      0.1881924
	      0.2908451
	      0.2325180
	      0.2325149
	      0.2908403
	      0.1881973
	      0.1457221
	      0.9006312
	      0.9504157
	      0.1883381
	      0.2363865
	      0.3426273
	      0.2908431
	      0.2908399
	      0.3426225
	      0.2363911
	      0.1883422
	      0.9503883
	      0.9113984
	      0.1296428
	      0.1517576
	      0.2363976
	      0.1882023
	      0.1881993
	      0.2363935
	      0.1517631
	      0.1296470
	      0.9113727
	      0.8962486
	      0.1127283
	      0.1296416
	      0.1883467
	      0.1457259
	      0.1457234
	      0.1883438
	      0.1296469
	      0.1127305
	      0.8962273
	      1.6020874
	      0.8962257
	      0.9113635
	      0.9503859
	      0.9006253
	      0.9006214
	      0.9503794
	      0.9113628
	      0.8962193
	      1.6020537
	      0.1270718
	      0.0971516
	      0.0973225
	      0.1066535
	      0.1071916
	      0.1071915
	      0.1066535
	      0.0973221
	      0.0971508
	      0.1270711
	      0.0971518
	      0.1082692
	      0.1097959
	      0.1281380
	      0.1273389
	      0.1273387
	      0.1281384
	      0.1097952
	      0.1082686
	      0.0971502
	      0.0973221
	      0.1097954
	      0.0912758
	      0.1090398
	      0.1057713
	      0.1057712
	      0.1090413
	      0.0912751
	      0.1097949
	      0.0973202
	      0.1066529
	      0.1281373
	      0.1090395
	      0.1291900
	      0.1263887
	      0.1263884
	      0.1291915
	      0.1090389
	      0.1281367
	      0.1066505
	      0.1071911
	      0.1273384
	      0.1057713
	      0.1263890
	      0.1232516
	      0.1232514
	      0.1263907
	      0.1057709
	      0.1273378
	      0.1071888
	      0.1071911
	      0.1273382
	      0.1057711
	      0.1263886
	      0.1232513
	      0.1232511
	      0.1263903
	      0.1057706
	      0.1273375
	      0.1071887
	      0.1066529
	      0.1281379
	      0.1090413
	      0.1291921
	      0.1263909
	      0.1263907
	      0.1291936
	      0.1090407
	      0.1281373
	      0.1066505
	      0.0973215
	      0.1097945
	      0.0912745
	      0.1090389
	      0.1057708
	      0.1057706
	      0.1090403
	      0.0912738
	      0.1097940
	      0.0973196
	      0.0971504
	      0.1082684
	      0.1097942
	      0.1281362
	      0.1273373
	      0.1273370
	      0.1281366
	      0.1097935
	      0.1082677
	      0.0971489
	      0.1270712
	      0.0971498
	      0.0973195
	      0.1066499
	      0.1071883
	      0.1071883
	      0.1066499
	      0.0973192
	      0.0971490
	      0.1270705
	      0.2700834
	      0.2008227
	      0.1827887
	      0.1808957
	      0.1794657
	      0.1794657
	      0.1808953
	      0.1827878
	      0.2008211
	      0.2700815
	      0.2008228
	      0.1684868
	      0.1608251
	      0.1603644
	      0.1598888
	      0.1598889
	      0.1603640
	      0.1608240
	      0.1684851
	      0.2008230
	      0.1827889
	      0.1608246
	      0.1408606
	      0.1312077
	      0.1417105
	      0.1417096
	      0.1312077
	      0.1408579
	      0.1608215
	      0.1827889
	      0.1808957
	      0.1603634
	      0.1312065
	      0.1199010
	      0.1313186
	      0.1313176
	      0.1199013
	      0.1312042
	      0.1603600
	      0.1808957
	      0.1794657
	      0.1598877
	      0.1417095
	      0.1313186
	      0.1440904
	      0.1440891
	      0.1313185
	      0.1417068
	      0.1598841
	      0.1794657
	      0.1794656
	      0.1598878
	      0.1417089
	      0.1313175
	      0.1440881
	      0.1440868
	      0.1313174
	      0.1417063
	      0.1598842
	      0.1794655
	      0.1808950
	      0.1603628
	      0.1312066
	      0.1199012
	      0.1313183
	      0.1313174
	      0.1199015
	      0.1312042
	      0.1603594
	      0.1808950
	      0.1827874
	      0.1608228
	      0.1408565
	      0.1312031
	      0.1417062
	      0.1417053
	      0.1312031
	      0.1408538
	      0.1608197
	      0.1827875
	      0.2008206
	      0.1684848
	      0.1608203
	      0.1603588
	      0.1598830
	      0.1598831
	      0.1603585
	      0.1608192
	      0.1684831
	      0.2008208
	      0.2700816
	      0.2008225
	      0.1827885
	      0.1808954
	      0.1794656
	      0.1794655
	      0.1808950
	      0.1827876
	      0.2008209
	      0.2700797
	      0.2503973
	      0.2020804
	      0.1928855
	      0.1920319
	      0.1918885
	      0.1918883
	      0.1920315
	      0.1928846
	      0.2020791
	      0.2503960
	      0.2020810
	      0.1683847
	      0.1639211
	      0.1600360
	      0.1588695
	      0.1588693
	      0.1600358
	      0.1639205
	      0.1683851
	      0.2020811
	      0.1928861
	      0.1639216
	      0.2151256
	      0.2065570
	      0.2302307
	      0.2302301
	      0.2065575
	      0.2151234
	      0.1639226
	      0.1928856
	      0.1920323
	      0.1600364
	      0.2065557
	      0.1774254
	      0.2007183
	      0.2007176
	      0.1774267
	      0.2065548
	      0.1600373
	      0.1920316
	      0.1918888
	      0.1588698
	      0.2302299
	      0.2007189
	      0.2283612
	      0.2283599
	      0.2007198
	      0.2302286
	      0.1588702
	      0.1918879
	      0.1918884
	      0.1588695
	      0.2302292
	      0.2007178
	      0.2283593
	      0.2283579
	      0.2007187
	      0.2302280
	      0.1588698
	      0.1918875
	      0.1920314
	      0.1600357
	      0.2065568
	      0.1774268
	      0.2007199
	      0.2007192
	      0.1774281
	      0.2065558
	      0.1600367
	      0.1920307
	      0.1928843
	      0.1639204
	      0.2151224
	      0.2065540
	      0.2302278
	      0.2302271
	      0.2065546
	      0.2151202
	      0.1639214
	      0.1928838
	      0.2020786
	      0.1683856
	      0.1639225
	      0.1600372
	      0.1588703
	      0.1588702
	      0.1600370
	      0.1639218
	      0.1683861
	      0.2020787
	      0.2503960
	      0.2020806
	      0.1928852
	      0.1920315
	      0.1918880
	      0.1918878
	      0.1920311
	      0.1928844
	      0.2020793
	      0.2503948
	      0.1945200
	      0.1715997
	      0.1706989
	      0.1739985
	      0.1747374
	      0.1747372
	      0.1739982
	      0.1706984
	      0.1715990
	      0.1945200
	      0.1716006
	      0.1402292
	      0.1412240
	      0.1406951
	      0.1389103
	      0.1389099
	      0.1406949
	      0.1412237
	      0.1402307
	      0.1716019
	      0.1707000
	      0.1412249
	      0.1944544
	      0.1862711
	      0.2045770
	      0.2045773
	      0.1862711
	      0.1944504
	      0.1412271
	      0.1707005
	      0.1739995
	      0.1406962
	      0.1862695
	      0.1508752
	      0.1696399
	      0.1696405
	      0.1508758
	      0.1862663
	      0.1406982
	      0.1739996
	      0.1747381
	      0.1389111
	      0.2045756
	      0.1696401
	      0.1956612
	      0.1956616
	      0.1696396
	      0.2045720
	      0.1389132
	      0.1747381
	      0.1747377
	      0.1389106
	      0.2045758
	      0.1696405
	      0.1956617
	      0.1956621
	      0.1696401
	      0.2045721
	      0.1389126
	      0.1747377
	      0.1739985
	      0.1406954
	      0.1862701
	      0.1508756
	      0.1696396
	      0.1696403
	      0.1508762
	      0.1862669
	      0.1406974
	      0.1739986
	      0.1706985
	      0.1412239
	      0.1944488
	      0.1862653
	      0.2045705
	      0.2045708
	      0.1862653
	      0.1944448
	      0.1412261
	      0.1706990
	      0.1715990
	      0.1402313
	      0.1412273
	      0.1406988
	      0.1389139
	      0.1389135
	      0.1406985
	      0.1412271
	      0.1402329
	      0.1716003
	      0.1945208
	      0.1716018
	      0.1707006
	      0.1740000
	      0.1747386
	      0.1747385
	      0.1739996
	      0.1707001
	      0.1716012
	      0.1945207
	      0.1945280
	      0.1716021
	      0.1706970
	      0.1739946
	      0.1747295
	      0.1747293
	      0.1739942
	      0.1706966
	      0.1716016
	      0.1945282
	      0.1716030
	      0.1402731
	      0.1412978
	      0.1407909
	      0.1390531
	      0.1390526
	      0.1407905
	      0.1412976
	      0.1402744
	      0.1716044
	      0.1706981
	      0.1412988
	      0.1936903
	      0.1858651
	      0.2039295
	      0.2039307
	      0.1858651
	      0.1936874
	      0.1413003
	      0.1706986
	      0.1739956
	      0.1407919
	      0.1858635
	      0.1510051
	      0.1696409
	      0.1696425
	      0.1510058
	      0.1858616
	      0.1407932
	      0.1739957
	      0.1747303
	      0.1390537
	      0.2039282
	      0.1696409
	      0.1960590
	      0.1960605
	      0.1696407
	      0.2039262
	      0.1390548
	      0.1747302
	      0.1747298
	      0.1390531
	      0.2039299
	      0.1696428
	      0.1960610
	      0.1960624
	      0.1696426
	      0.2039279
	      0.1390542
	      0.1747298
	      0.1739945
	      0.1407908
	      0.1858641
	      0.1510057
	      0.1696411
	      0.1696427
	      0.1510064
	      0.1858622
	      0.1407921
	      0.1739946
	      0.1706967
	      0.1412977
	      0.1936865
	      0.1858607
	      0.2039254
	      0.2039266
	      0.1858607
	      0.1936836
	      0.1412991
	      0.1706971
	      0.1716016
	      0.1402747
	      0.1413003
	      0.1407935
	      0.1390553
	      0.1390549
	      0.1407931
	      0.1413001
	      0.1402760
	      0.1716030
	      0.1945291
	      0.1716044
	      0.1706987
	      0.1739961
	      0.1747308
	      0.1747305
	      0.1739956
	      0.1706982
	      0.1716039
	      0.1945293
	      0.2505103
	      0.2021659
	      0.1929790
	      0.1921313
	      0.1919728
	      0.1919726
	      0.1921307
	      0.1929782
	      0.2021649
	      0.2505093
	      0.2021666
	      0.1684923
	      0.1640690
	      0.1602399
	      0.1590981
	      0.1590979
	      0.1602395
	      0.1640682
	      0.1684924
	      0.2021667
	      0.1929796
	      0.1640696
	      0.2147623
	      0.2065865
	      0.2295495
	      0.2295487
	      0.2065857
	      0.2147611
	      0.1640706
	      0.1929788
	      0.1921318
	      0.1602404
	      0.2065854
	      0.1781639
	      0.2005521
	      0.2005515
	      0.1781630
	      0.2065848
	      0.1602416
	      0.1921305
	      0.1919730
	      0.1590984
	      0.2295487
	      0.2005521
	      0.2273980
	      0.2273969
	      0.2005506
	      0.2295480
	      0.1590990
	      0.1919716
	      0.1919726
	      0.1590980
	      0.2295480
	      0.2005511
	      0.2273962
	      0.2273951
	      0.2005496
	      0.2295473
	      0.1590986
	      0.1919712
	      0.1921306
	      0.1602393
	      0.2065850
	      0.1781623
	      0.2005502
	      0.2005496
	      0.1781614
	      0.2065844
	      0.1602405
	      0.1921293
	      0.1929778
	      0.1640680
	      0.2147602
	      0.2065840
	      0.2295474
	      0.2295466
	      0.2065832
	      0.2147590
	      0.1640690
	      0.1929770
	      0.2021644
	      0.1684927
	      0.1640704
	      0.1602414
	      0.1590991
	      0.1590989
	      0.1602410
	      0.1640696
	      0.1684928
	      0.2021646
	      0.2505095
	      0.2021662
	      0.1929784
	      0.1921303
	      0.1919716
	      0.1919714
	      0.1921297
	      0.1929776
	      0.2021652
	      0.2505084
	      0.2704670
	      0.2010749
	      0.1830571
	      0.1811844
	      0.1797460
	      0.1797458
	      0.1811839
	      0.1830562
	      0.2010734
	      0.2704646
	      0.2010751
	      0.1686055
	      0.1609480
	      0.1605289
	      0.1600136
	      0.1600136
	      0.1605285
	      0.1609472
	      0.1686047
	      0.2010737
	      0.1830571
	      0.1609479
	      0.1399694
	      0.1311270
	      0.1416873
	      0.1416873
	      0.1311273
	      0.1399680
	      0.1609474
	      0.1830550
	      0.1811841
	      0.1605284
	      0.1311260
	      0.1208696
	      0.1322935
	      0.1322943
	      0.1208702
	      0.1311244
	      0.1605276
	      0.1811819
	      0.1797456
	      0.1600129
	      0.1416865
	      0.1322936
	      0.1445554
	      0.1445559
	      0.1322939
	      0.1416845
	      0.1600121
	      0.1797433
	      0.1797453
	      0.1600129
	      0.1416870
	      0.1322944
	      0.1445556
	      0.1445560
	      0.1322947
	      0.1416850
	      0.1600122
	      0.1797431
	      0.1811833
	      0.1605277
	      0.1311267
	      0.1208702
	      0.1322941
	      0.1322949
	      0.1208708
	      0.1311251
	      0.1605269
	      0.1811810
	      0.1830555
	      0.1609465
	      0.1399671
	      0.1311238
	      0.1416842
	      0.1416843
	      0.1311241
	      0.1399657
	      0.1609460
	      0.1830535
	      0.2010726
	      0.1686048
	      0.1609467
	      0.1605269
	      0.1600114
	      0.1600115
	      0.1605264
	      0.1609459
	      0.1686040
	      0.2010712
	      0.2704640
	      0.2010728
	      0.1830543
	      0.1811813
	      0.1797428
	      0.1797427
	      0.1811807
	      0.1830534
	      0.2010714
	      0.2704615
	      0.1274903
	      0.0973798
	      0.0975511
	      0.1069060
	      0.1074485
	      0.1074484
	      0.1069058
	      0.0975510
	      0.0973795
	      0.1274893
	      0.0973799
	      0.1082153
	      0.1097587
	      0.1280786
	      0.1272195
	      0.1272191
	      0.1280779
	      0.1097583
	      0.1082143
	      0.0973795
	      0.0975509
	      0.1097581
	      0.0911317
	      0.1088250
	      0.1054011
	      0.1054005
	      0.1088243
	      0.0911315
	      0.1097568
	      0.0975502
	      0.1069057
	      0.1280779
	      0.1088251
	      0.1288129
	      0.1258518
	      0.1258510
	      0.1288121
	      0.1088251
	      0.1280763
	      0.1069045
	      0.1074482
	      0.1272189
	      0.1054012
	      0.1258518
	      0.1226032
	      0.1226024
	      0.1258510
	      0.1054013
	      0.1272173
	      0.1074469
	      0.1074481
	      0.1272184
	      0.1054003
	      0.1258507
	      0.1226020
	      0.1226012
	      0.1258499
	      0.1054004
	      0.1272168
	      0.1074469
	      0.1069055
	      0.1280770
	      0.1088240
	      0.1288117
	      0.1258507
	      0.1258499
	      0.1288109
	      0.1088239
	      0.1280755
	      0.1069043
	      0.0975506
	      0.1097575
	      0.0911311
	      0.1088248
	      0.1054010
	      0.1054005
	      0.1088240
	      0.0911308
	      0.1097561
	      0.0975499
	      0.0973793
	      0.1082138
	      0.1097559
	      0.1280755
	      0.1272165
	      0.1272161
	      0.1280748
	      0.1097555
	      0.1082128
	      0.0973789
	      0.1274898
	      0.0973793
	      0.0975498
	      0.1069042
	      0.1074467
	      0.1074466
	      0.1069039
	      0.0975497
	      0.0973790
	      0.1274888
	      1.6021919
	      0.8963134
	      0.9113640
	      0.9504853
	      0.9006214
	      0.9006187
	      0.9504800
	      0.9113606
	      0.8963055
	      1.6021598
	      0.8963063
	      0.1135157
	      0.1301557
	      0.1887939
	      0.1461602
	      0.1461591
	      0.1887929
	      0.1301591
	      0.1135178
	      0.8962867
	      0.9113546
	      0.1301551
	      0.1520451
	      0.2366286
	      0.1884329
	      0.1884315
	      0.2366270
	      0.1520484
	      0.1301572
	      0.9113315
	      0.9504766
	      0.1887947
	      0.2366302
	      0.3428747
	      0.2909969
	      0.2909952
	      0.3428723
	      0.2366328
	      0.1887963
	      0.9504520
	      0.9006121
	      0.1461610
	      0.1884345
	      0.2909966
	      0.2324537
	      0.2324521
	      0.2909944
	      0.1884377
	      0.1461634
	      0.9005882
	      0.9006086
	      0.1461592
	      0.1884320
	      0.2909937
	      0.2324508
	      0.2324492
	      0.2909914
	      0.1884352
	      0.1461616
	      0.9005847
	      0.9504703
	      0.1887930
	      0.2366275
	      0.3428708
	      0.2909928
	      0.2909912
	      0.3428684
	      0.2366302
	      0.1887947
	      0.9504456
	      0.9113518
	      0.1301601
	      0.1520503
	      0.2366334
	      0.1884382
	      0.1884367
	      0.2366318
	      0.1520536
	      0.1301622
	      0.9113287
	      0.8962969
	      0.1135185
	      0.1301582
	      0.1887964
	      0.1461635
	      0.1461624
	      0.1887955
	      0.1301616
	      0.1135206
	      0.8962773
	      1.6021473
	      0.8962780
	      0.9113228
	      0.9504422
	      0.9005781
	      0.9005754
	      0.9504370
	      0.9113194
	      0.8962701
	      1.6021152
