# vtk DataFile Version 3.0
test_file
ASCII
DATASET POLYDATA
POINTS 1000 float
   1.15000 	   -0.00000 	    0.00000
   1.15000 	   -0.00000 	    1.00000
   1.15000 	    0.00000 	    2.00000
   1.15000 	    0.00000 	    3.00000
   1.15000 	    0.00000 	    4.00000
   1.15000 	    0.00000 	    5.00000
   1.15000 	    0.00000 	    6.00000
   1.15000 	    0.00000 	    7.00000
   1.15000 	   -0.00000 	    8.00000
   1.15000 	    0.00000 	    9.00000
   1.15000 	    1.00000 	    0.00000
   1.15000 	    1.00000 	    1.00000
   1.15000 	    1.00000 	    2.00000
   1.15000 	    1.00000 	    3.00000
   1.15000 	    1.00000 	    4.00000
   1.15000 	    1.00000 	    5.00000
   1.15000 	    1.00000 	    6.00000
   1.15000 	    1.00000 	    7.00000
   1.15000 	    1.00000 	    8.00000
   1.15000 	    1.00000 	    9.00000
   1.15000 	    2.00000 	    0.00000
   1.15000 	    2.00000 	    1.00000
   1.15000 	    2.00000 	    2.00000
   1.15000 	    2.00000 	    3.00000
   1.15000 	    2.00000 	    4.00000
   1.15000 	    2.00000 	    5.00000
   1.15000 	    2.00000 	    6.00000
   1.15000 	    2.00000 	    7.00000
   1.15000 	    2.00000 	    8.00000
   1.15000 	    2.00000 	    9.00000
   1.15000 	    3.00000 	    0.00000
   1.15000 	    3.00000 	    1.00000
   1.15000 	    3.00000 	    2.00000
   1.15000 	    3.00000 	    3.00000
   1.15000 	    3.00000 	    4.00000
   1.15000 	    3.00000 	    5.00000
   1.15000 	    3.00000 	    6.00000
   1.15000 	    3.00000 	    7.00000
   1.15000 	    3.00000 	    8.00000
   1.15000 	    3.00000 	    9.00000
   1.15000 	    4.00000 	    0.00000
   1.15000 	    4.00000 	    1.00000
   1.15000 	    4.00000 	    2.00000
   1.15000 	    4.00000 	    3.00000
   1.15000 	    4.00000 	    4.00000
   1.15000 	    4.00000 	    5.00000
   1.15000 	    4.00000 	    6.00000
   1.15000 	    4.00000 	    7.00000
   1.15000 	    4.00000 	    8.00000
   1.15000 	    4.00000 	    9.00000
   1.15000 	    5.00000 	    0.00000
   1.15000 	    5.00000 	    1.00000
   1.15000 	    5.00000 	    2.00000
   1.15000 	    5.00000 	    3.00000
   1.15000 	    5.00000 	    4.00000
   1.15000 	    5.00000 	    5.00000
   1.15000 	    5.00000 	    6.00000
   1.15000 	    5.00000 	    7.00000
   1.15000 	    5.00000 	    8.00000
   1.15000 	    5.00000 	    9.00000
   1.15000 	    6.00000 	    0.00000
   1.15000 	    6.00000 	    1.00000
   1.15000 	    6.00000 	    2.00000
   1.15000 	    6.00000 	    3.00000
   1.15000 	    6.00000 	    4.00000
   1.15000 	    6.00000 	    5.00000
   1.15000 	    6.00000 	    6.00000
   1.15000 	    6.00000 	    7.00000
   1.15000 	    6.00000 	    8.00000
   1.15000 	    6.00000 	    9.00000
   1.15000 	    7.00000 	    0.00000
   1.15000 	    7.00000 	    1.00000
   1.15000 	    7.00000 	    2.00000
   1.15000 	    7.00000 	    3.00000
   1.15000 	    7.00000 	    4.00000
   1.15000 	    7.00000 	    5.00000
   1.15000 	    7.00000 	    6.00000
   1.15000 	    7.00000 	    7.00000
   1.15000 	    7.00000 	    8.00000
   1.15000 	    7.00000 	    9.00000
   1.15000 	    8.00000 	    0.00000
   1.15000 	    8.00000 	    1.00000
   1.15000 	    8.00000 	    2.00000
   1.15000 	    8.00000 	    3.00000
   1.15000 	    8.00000 	    4.00000
   1.15000 	    8.00000 	    5.00000
   1.15000 	    8.00000 	    6.00000
   1.15000 	    8.00000 	    7.00000
   1.15000 	    8.00000 	    8.00000
   1.15000 	    8.00000 	    9.00000
   1.15000 	    9.00000 	    0.00000
   1.15000 	    9.00000 	    1.00000
   1.15000 	    9.00000 	    2.00000
   1.15000 	    9.00000 	    3.00000
   1.15000 	    9.00000 	    4.00000
   1.15000 	    9.00000 	    5.00000
   1.15000 	    9.00000 	    6.00000
   1.15000 	    9.00000 	    7.00000
   1.15000 	    9.00000 	    8.00000
   1.15000 	    9.00000 	    9.00000
   2.17029 	   -0.22471 	   -0.22472
   2.15615 	   -0.24243 	    0.88393
   2.15471 	   -0.24182 	    1.93644
   2.16307 	   -0.24886 	    2.94967
   2.15679 	   -0.24788 	    3.98121
   2.15679 	   -0.24788 	    5.01879
   2.16307 	   -0.24886 	    6.05032
   2.15471 	   -0.24182 	    7.06356
   2.15615 	   -0.24243 	    8.11606
   2.17029 	   -0.22471 	    9.22471
   2.15615 	    0.88393 	   -0.24243
   2.11340 	    0.84538 	    0.84538
   2.10236 	    0.86041 	    1.91660
   2.10579 	    0.85576 	    2.92380
   2.10416 	    0.86001 	    3.97095
   2.10416 	    0.86001 	    5.02904
   2.10579 	    0.85576 	    6.07619
   2.10236 	    0.86041 	    7.08339
   2.11340 	    0.84538 	    8.15461
   2.15615 	    0.88394 	    9.24243
   2.15471 	    1.93644 	   -0.24182
   2.10236 	    1.91660 	    0.86042
   2.11322 	    1.92153 	    1.92153
   2.11242 	    1.92185 	    2.91114
   2.11482 	    1.92239 	    3.96576
   2.11482 	    1.92239 	    5.03422
   2.11242 	    1.92185 	    6.08884
   2.11322 	    1.92153 	    7.07846
   2.10236 	    1.91660 	    8.13957
   2.15471 	    1.93644 	    9.24181
   2.16307 	    2.94967 	   -0.24886
   2.10579 	    2.92380 	    0.85577
   2.11242 	    2.91114 	    1.92186
   2.10873 	    2.90905 	    2.90905
   2.11108 	    2.90813 	    3.96533
   2.11108 	    2.90813 	    5.03466
   2.10873 	    2.90905 	    6.09094
   2.11242 	    2.91114 	    7.07814
   2.10579 	    2.92380 	    8.14422
   2.16307 	    2.94967 	    9.24885
   2.15679 	    3.98121 	   -0.24788
   2.10416 	    3.97095 	    0.86001
   2.11482 	    3.96576 	    1.92239
   2.11108 	    3.96532 	    2.90813
   2.11325 	    3.96526 	    3.96527
   2.11325 	    3.96526 	    5.03472
   2.11108 	    3.96532 	    6.09186
   2.11481 	    3.96576 	    7.07760
   2.10416 	    3.97095 	    8.13998
   2.15679 	    3.98121 	    9.24787
   2.15679 	    5.01878 	   -0.24788
   2.10416 	    5.02903 	    0.86001
   2.11482 	    5.03422 	    1.92239
   2.11108 	    5.03466 	    2.90813
   2.11325 	    5.03472 	    3.96527
   2.11325 	    5.03472 	    5.03472
   2.11108 	    5.03466 	    6.09185
   2.11481 	    5.03422 	    7.07760
   2.10416 	    5.02903 	    8.13998
   2.15679 	    5.01878 	    9.24787
   2.16307 	    6.05032 	   -0.24886
   2.10579 	    6.07618 	    0.85577
   2.11242 	    6.08884 	    1.92186
   2.10873 	    6.09093 	    2.90905
   2.11108 	    6.09185 	    3.96533
   2.11108 	    6.09185 	    5.03466
   2.10873 	    6.09093 	    6.09094
   2.11242 	    6.08884 	    7.07814
   2.10579 	    6.07618 	    8.14422
   2.16307 	    6.05032 	    9.24885
   2.15471 	    7.06356 	   -0.24182
   2.10236 	    7.08338 	    0.86042
   2.11322 	    7.07846 	    1.92154
   2.11242 	    7.07814 	    2.91115
   2.11481 	    7.07760 	    3.96576
   2.11481 	    7.07760 	    5.03422
   2.11242 	    7.07814 	    6.08884
   2.11322 	    7.07845 	    7.07846
   2.10236 	    7.08338 	    8.13957
   2.15471 	    7.06356 	    9.24181
   2.15615 	    8.11606 	   -0.24243
   2.11339 	    8.15460 	    0.84539
   2.10236 	    8.13957 	    1.91661
   2.10579 	    8.14422 	    2.92381
   2.10416 	    8.13998 	    3.97095
   2.10416 	    8.13998 	    5.02904
   2.10579 	    8.14422 	    6.07618
   2.10236 	    8.13957 	    7.08339
   2.11339 	    8.15460 	    8.15460
   2.15615 	    8.11606 	    9.24242
   2.17029 	    9.22471 	   -0.22471
   2.15615 	    9.24242 	    0.88394
   2.15471 	    9.24181 	    1.93644
   2.16307 	    9.24885 	    2.94967
   2.15679 	    9.24786 	    3.98121
   2.15679 	    9.24786 	    5.01878
   2.16307 	    9.24884 	    6.05032
   2.15471 	    9.24181 	    7.06356
   2.15615 	    9.24242 	    8.11606
   2.17029 	    9.22470 	    9.22470
   2.88568 	   -0.31931 	   -0.31931
   2.93553 	   -0.33617 	    0.76354
   2.95277 	   -0.34753 	    1.84368
   2.95331 	   -0.35879 	    2.90431
   2.94837 	   -0.36539 	    3.96870
   2.94837 	   -0.36539 	    5.03129
   2.95331 	   -0.35879 	    6.09568
   2.95277 	   -0.34753 	    7.15631
   2.93554 	   -0.33616 	    8.23645
   2.88568 	   -0.31930 	    9.31930
   2.93554 	    0.76354 	   -0.33617
   3.03547 	    0.73573 	    0.73573
   3.07031 	    0.72262 	    1.85142
   3.07009 	    0.71325 	    2.91178
   3.06368 	    0.70239 	    3.97172
   3.06368 	    0.70239 	    5.02827
   3.07009 	    0.71325 	    6.08821
   3.07030 	    0.72263 	    7.14857
   3.03547 	    0.73573 	    8.26426
   2.93554 	    0.76355 	    9.33616
   2.95277 	    1.84368 	   -0.34753
   3.07031 	    1.85142 	    0.72263
   3.09225 	    1.85400 	    1.85401
   3.08206 	    1.84918 	    2.91261
   3.06595 	    1.83703 	    3.96944
   3.06595 	    1.83704 	    5.03055
   3.08206 	    1.84918 	    6.08739
   3.09224 	    1.85401 	    7.14598
   3.07031 	    1.85142 	    8.27736
   2.95277 	    1.84368 	    9.34752
   2.95331 	    2.90431 	   -0.35878
   3.07009 	    2.91178 	    0.71325
   3.08206 	    2.91260 	    1.84918
   3.06826 	    2.91039 	    2.91039
   3.05116 	    2.90489 	    3.96794
   3.05116 	    2.90489 	    5.03204
   3.06826 	    2.91039 	    6.08960
   3.08206 	    2.91260 	    7.15080
   3.07009 	    2.91178 	    8.28673
   2.95331 	    2.90431 	    9.35877
   2.94837 	    3.96870 	   -0.36539
   3.06368 	    3.97172 	    0.70239
   3.06595 	    3.96944 	    1.83704
   3.05116 	    3.96794 	    2.90490
   3.03185 	    3.96635 	    3.96635
   3.03185 	    3.96635 	    5.03363
   3.05116 	    3.96794 	    6.09509
   3.06595 	    3.96944 	    7.16295
   3.06369 	    3.97172 	    8.29759
   2.94838 	    3.96870 	    9.36538
   2.94837 	    5.03129 	   -0.36539
   3.06368 	    5.02827 	    0.70239
   3.06595 	    5.03054 	    1.83704
   3.05116 	    5.03204 	    2.90490
   3.03185 	    5.03363 	    3.96635
   3.03185 	    5.03363 	    5.03363
   3.05116 	    5.03204 	    6.09509
   3.06595 	    5.03054 	    7.16295
   3.06369 	    5.02827 	    8.29759
   2.94838 	    5.03129 	    9.36538
   2.95331 	    6.09567 	   -0.35878
   3.07009 	    6.08821 	    0.71325
   3.08206 	    6.08738 	    1.84918
   3.06826 	    6.08959 	    2.91039
   3.05116 	    6.09509 	    3.96795
   3.05116 	    6.09509 	    5.03204
   3.06826 	    6.08959 	    6.08960
   3.08206 	    6.08738 	    7.15080
[...]
POINT_DATA 1000
SCALARS C float
LOOKUP_TABLE default
	      1.5762316
	      0.8828609
	      0.8972288
	      0.9354143
	      0.8866681
	      0.8866642
	      0.9354078
	      0.8972280
	      0.8828544
	      1.5761982
	      0.8828531
	      0.1132411
	      0.1293903
	      0.1867147
	      0.1450871
	      0.1450846
	      0.1867118
	      0.1293956
	      0.1132431
	      0.8828319
	      0.8972191
	      0.1293901
	      0.1505099
	      0.2331150
	      0.1860296
	      0.1860266
	      0.2331110
	      0.1505154
	      0.1293941
	      0.8971935
	      0.9354054
	      0.1867163
	      0.2331173
	      0.3369797
	      0.2865076
	      0.2865044
	      0.3369748
	      0.2331221
	      0.1867201
	      0.9353782
	      0.8866583
	      0.1450883
	      0.1860316
	      0.2865072
	      0.2298244
	      0.2298212
	      0.2865025
	      0.1860366
	      0.1450925
	      0.8866318
	      0.8866534
	      0.1450847
	      0.1860270
	      0.2865020
	      0.2298192
	      0.2298160
	      0.2864973
	      0.1860320
	      0.1450890
	      0.8866269
	      0.9353978
	      0.1867121
	      0.2331116
	      0.3369723
	      0.2865001
	      0.2864969
	      0.3369674
	      0.2331164
	      0.1867159
	      0.9353706
	      0.8972193
	      0.1293973
	      0.1505182
	      0.2331227
	      0.1860370
	      0.1860340
	      0.2331187
	      0.1505238
	      0.1294013
	      0.8971938
	      0.8828454
	      0.1132435
	      0.1293958
	      0.1867203
	      0.1450927
	      0.1450902
	      0.1867175
	      0.1294011
	      0.1132455
	      0.8828242
	      1.5761867
	      0.8828229
	      0.8971848
	      0.9353682
	      0.8866211
	      0.8866171
	      0.9353617
	      0.8971841
	      0.8828164
	      1.5761534
	      0.1247884
	      0.0954310
	      0.0955970
	      0.1047602
	      0.1053140
	      0.1053140
	      0.1047602
	      0.0955966
	      0.0954302
	      0.1247877
	      0.0954312
	      0.1063140
	      0.1077882
	      0.1258795
	      0.1251289
	      0.1251286
	      0.1258799
	      0.1077875
	      0.1063134
	      0.0954296
	      0.0955966
	      0.1077877
	      0.0894137
	      0.1069320
	      0.1038118
	      0.1038117
	      0.1069334
	      0.0894129
	      0.1077872
	      0.0955948
	      0.1047596
	      0.1258788
	      0.1069316
	      0.1267841
	      0.1241708
	      0.1241706
	      0.1267856
	      0.1069309
	      0.1258782
	      0.1047573
	      0.1053136
	      0.1251284
	      0.1038117
	      0.1241711
	      0.1212388
	      0.1212386
	      0.1241727
	      0.1038111
	      0.1251277
	      0.1053113
	      0.1053135
	      0.1251281
	      0.1038115
	      0.1241708
	      0.1212385
	      0.1212384
	      0.1241724
	      0.1038109
	      0.1251274
	      0.1053112
	      0.1047596
	      0.1258794
	      0.1069333
	      0.1267861
	      0.1241729
	      0.1241727
	      0.1267875
	      0.1069326
	      0.1258788
	      0.1047573
	      0.0955960
	      0.1077867
	      0.0894123
	      0.1069308
	      0.1038109
	      0.1038109
	      0.1069322
	      0.0894115
	      0.1077862
	      0.0955942
	      0.0954299
	      0.1063132
	      0.1077864
	      0.1258777
	      0.1251272
	      0.1251269
	      0.1258781
	      0.1077857
	      0.1063126
	      0.0954283
	      0.1247879
	      0.0954293
	      0.0955941
	      0.1047567
	      0.1053108
	      0.1053108
	      0.1047567
	      0.0955938
	      0.0954285
	      0.1247872
	      0.2664258
	      0.1979374
	      0.1801216
	      0.1782584
	      0.1768570
	      0.1768570
	      0.1782580
	      0.1801207
	      0.1979358
	      0.2664238
	      0.1979375
	      0.1656604
	      0.1579772
	      0.1575058
	      0.1570042
	      0.1570043
	      0.1575054
	      0.1579760
	      0.1656588
	      0.1979376
	      0.1801218
	      0.1579766
	      0.1395123
	      0.1302042
	      0.1398987
	      0.1398972
	      0.1302042
	      0.1395103
	      0.1579735
	      0.1801218
	      0.1782585
	      0.1575048
	      0.1302030
	      0.1192363
	      0.1298541
	      0.1298529
	      0.1192369
	      0.1302010
	      0.1575013
	      0.1782584
	      0.1768570
	      0.1570031
	      0.1398979
	      0.1298543
	      0.1416784
	      0.1416766
	      0.1298543
	      0.1398960
	      0.1569992
	      0.1768569
	      0.1768568
	      0.1570031
	      0.1398966
	      0.1298527
	      0.1416755
	      0.1416736
	      0.1298527
	      0.1398947
	      0.1569993
	      0.1768568
	      0.1782578
	      0.1575042
	      0.1302033
	      0.1192368
	      0.1298540
	      0.1298529
	      0.1192373
	      0.1302013
	      0.1575007
	      0.1782577
	      0.1801203
	      0.1579748
	      0.1395090
	      0.1302001
	      0.1398954
	      0.1398938
	      0.1302001
	      0.1395069
	      0.1579717
	      0.1801204
	      0.1979353
	      0.1656584
	      0.1579723
	      0.1575001
	      0.1569981
	      0.1569982
	      0.1574997
	      0.1579712
	      0.1656567
	      0.1979354
	      0.2664238
	      0.1979372
	      0.1801214
	      0.1782582
	      0.1768568
	      0.1768567
	      0.1782577
	      0.1801205
	      0.1979356
	      0.2664219
	      0.2473363
	      0.1993855
	      0.1902758
	      0.1894646
	      0.1893425
	      0.1893423
	      0.1894642
	      0.1902750
	      0.1993841
	      0.2473350
	      0.1993860
	      0.1659479
	      0.1615495
	      0.1578387
	      0.1566945
	      0.1566943
	      0.1578385
	      0.1615489
	      0.1659483
	      0.1993861
	      0.1902764
	      0.1615500
	      0.2106458
	      0.2024591
	      0.2257349
	      0.2257346
	      0.2024597
	      0.2106433
	      0.1615510
	      0.1902759
	      0.1894650
	      0.1578391
	      0.2024578
	      0.1744426
	      0.1973219
	      0.1973216
	      0.1744440
	      0.2024563
	      0.1578401
	      0.1894643
	      0.1893427
	      0.1566949
	      0.2257340
	      0.1973225
	      0.2243840
	      0.2243829
	      0.1973234
	      0.2257325
	      0.1566953
	      0.1893419
	      0.1893424
	      0.1566945
	      0.2257336
	      0.1973218
	      0.2243825
	      0.2243815
	      0.1973227
	      0.2257321
	      0.1566949
	      0.1893415
	      0.1894640
	      0.1578384
	      0.2024590
	      0.1744440
	      0.1973235
	      0.1973232
	      0.1744454
	      0.2024575
	      0.1578394
	      0.1894634
	      0.1902746
	      0.1615488
	      0.2106423
	      0.2024555
	      0.2257316
	      0.2257312
	      0.2024562
	      0.2106398
	      0.1615498
	      0.1902741
	      0.1993836
	      0.1659488
	      0.1615509
	      0.1578400
	      0.1566955
	      0.1566953
	      0.1578398
	      0.1615503
	      0.1659492
	      0.1993837
	      0.2473350
	      0.1993856
	      0.1902755
	      0.1894642
	      0.1893419
	      0.1893418
	      0.1894638
	      0.1902747
	      0.1993843
	      0.2473337
	      0.1925443
	      0.1695152
	      0.1685535
	      0.1718137
	      0.1725510
	      0.1725509
	      0.1718134
	      0.1685530
	      0.1695145
	      0.1925442
	      0.1695161
	      0.1384190
	      0.1394263
	      0.1389694
	      0.1372388
	      0.1372384
	      0.1389691
	      0.1394260
	      0.1384205
	      0.1695173
	      0.1685545
	      0.1394273
	      0.1901555
	      0.1827970
	      0.2004260
	      0.2004261
	      0.1827970
	      0.1901519
	      0.1394292
	      0.1685550
	      0.1718147
	      0.1389704
	      0.1827953
	      0.1491423
	      0.1670626
	      0.1670628
	      0.1491427
	      0.1827928
	      0.1389723
	      0.1718148
	      0.1725517
	      0.1372396
	      0.2004248
	      0.1670627
	      0.1923486
	      0.1923491
	      0.1670623
	      0.2004214
	      0.1372415
	      0.1725517
	      0.1725513
	      0.1372390
	      0.2004248
	      0.1670627
	      0.1923490
	      0.1923494
	      0.1670623
	      0.2004214
	      0.1372409
	      0.1725513
	      0.1718137
	      0.1389696
	      0.1827959
	      0.1491424
	      0.1670622
	      0.1670624
	      0.1491429
	      0.1827933
	      0.1389714
	      0.1718138
	      0.1685530
	      0.1394262
	      0.1901505
	      0.1827917
	      0.2004200
	      0.2004202
	      0.1827917
	      0.1901469
	      0.1394281
	      0.1685535
	      0.1695145
	      0.1384211
	      0.1394294
	      0.1389728
	      0.1372421
	      0.1372417
	      0.1389725
	      0.1394291
	      0.1384226
	      0.1695157
	      0.1925450
	      0.1695173
	      0.1685550
	      0.1718151
	      0.1725522
	      0.1725520
	      0.1718147
	      0.1685545
	      0.1695166
	      0.1925450
	      0.1925630
	      0.1695198
	      0.1685454
	      0.1717997
	      0.1725318
	      0.1725316
	      0.1717993
	      0.1685450
	      0.1695193
	      0.1925631
	      0.1695207
	      0.1384436
	      0.1393869
	      0.1388884
	      0.1372027
	      0.1372023
	      0.1388880
	      0.1393866
	      0.1384449
	      0.1695221
	      0.1685465
	      0.1393879
	      0.1898495
	      0.1827230
	      0.2002015
	      0.2002028
	      0.1827231
	      0.1898467
	      0.1393891
	      0.1685470
	      0.1718007
	      0.1388895
	      0.1827214
	      0.1493556
	      0.1670738
	      0.1670750
	      0.1493562
	      0.1827197
	      0.1388906
	      0.1718008
	      0.1725325
	      0.1372033
	      0.2002003
	      0.1670738
	      0.1924539
	      0.1924552
	      0.1670736
	      0.2001983
	      0.1372042
	      0.1725324
	      0.1725321
	      0.1372028
	      0.2002020
	      0.1670753
	      0.1924556
	      0.1924570
	      0.1670751
	      0.2002001
	      0.1372037
	      0.1725320
	      0.1717996
	      0.1388882
	      0.1827221
	      0.1493561
	      0.1670739
	      0.1670751
	      0.1493566
	      0.1827204
	      0.1388894
	      0.1717997
	      0.1685451
	      0.1393867
	      0.1898458
	      0.1827187
	      0.2001976
	      0.2001988
	      0.1827188
	      0.1898430
	      0.1393879
	      0.1685455
	      0.1695193
	      0.1384451
	      0.1393892
	      0.1388908
	      0.1372047
	      0.1372043
	      0.1388904
	      0.1393889
	      0.1384464
	      0.1695207
	      0.1925640
	      0.1695221
	      0.1685471
	      0.1718011
	      0.1725329
	      0.1725327
	      0.1718006
	      0.1685466
	      0.1695216
	      0.1925641
	      0.2474693
	      0.1994853
	      0.1903849
	      0.1895896
	      0.1894559
	      0.1894556
	      0.1895890
	      0.1903841
	      0.1994842
	      0.2474682
	      0.1994859
	      0.1660408
	      0.1616027
	      0.1579332
	      0.1567962
	      0.1567960
	      0.1579328
	      0.1616019
	      0.1660409
	      0.1994860
	      0.1903855
	      0.1616032
	      0.2105266
	      0.2025293
	      0.2251893
	      0.2251889
	      0.2025288
	      0.2105252
	      0.1616043
	      0.1903846
	      0.1895900
	      0.1579337
	      0.2025282
	      0.1749091
	      0.1970486
	      0.1970486
	      0.1749085
	      0.2025271
	      0.1579350
	      0.1895888
	      0.1894561
	      0.1567966
	      0.2251885
	      0.1970486
	      0.2234620
	      0.2234612
	      0.1970474
	      0.2251876
	      0.1567973
	      0.1894547
	      0.1894556
	      0.1567961
	      0.2251882
	      0.1970482
	      0.2234608
	      0.2234601
	      0.1970470
	      0.2251873
	      0.1567968
	      0.1894543
	      0.1895889
	      0.1579326
	      0.2025282
	      0.1749078
	      0.1970471
	      0.1970471
	      0.1749072
	      0.2025271
	      0.1579339
	      0.1895876
	      0.1903837
	      0.1616017
	      0.2105243
	      0.2025264
	      0.2251869
	      0.2251865
	      0.2025260
	      0.2105229
	      0.1616028
	      0.1903829
	      0.1994837
	      0.1660412
	      0.1616041
	      0.1579349
	      0.1567974
	      0.1567972
	      0.1579345
	      0.1616033
	      0.1660413
	      0.1994839
	      0.2474684
	      0.1994855
	      0.1903843
	      0.1895886
	      0.1894547
	      0.1894545
	      0.1895880
	      0.1903835
	      0.1994845
	      0.2474673
	      0.2668148
	      0.1981988
	      0.1804086
	      0.1785813
	      0.1771783
	      0.1771781
	      0.1785808
	      0.1804077
	      0.1981974
	      0.2668123
	      0.1981990
	      0.1657881
	      0.1581468
	      0.1577823
	      0.1572359
	      0.1572360
	      0.1577819
	      0.1581459
	      0.1657872
	      0.1981976
	      0.1804086
	      0.1581467
	      0.1384703
	      0.1298888
	      0.1397961
	      0.1397953
	      0.1298888
	      0.1384695
	      0.1581460
	      0.1804065
	      0.1785810
	      0.1577818
	      0.1298878
	      0.1198290
	      0.1307450
	      0.1307452
	      0.1198294
	      0.1298866
	      0.1577807
	      0.1785788
	      0.1771779
	      0.1572352
	      0.1397956
	      0.1307453
	      0.1425034
	      0.1425030
	      0.1307453
	      0.1397943
	      0.1572341
	      0.1771756
	      0.1771776
	      0.1572352
	      0.1397950
	      0.1307452
	      0.1425025
	      0.1425021
	      0.1307451
	      0.1397938
	      0.1572342
	      0.1771754
	      0.1785802
	      0.1577811
	      0.1298884
	      0.1198293
	      0.1307453
	      0.1307455
	      0.1198297
	      0.1298872
	      0.1577800
	      0.1785780
	      0.1804070
	      0.1581452
	      0.1384685
	      0.1298863
	      0.1397940
	      0.1397933
	      0.1298862
	      0.1384677
	      0.1581446
	      0.1804050
	      0.1981965
	      0.1657873
	      0.1581453
	      0.1577799
	      0.1572334
	      0.1572334
	      0.1577795
	      0.1581445
	      0.1657865
	      0.1981950
	      0.2668117
	      0.1981967
	      0.1804058
	      0.1785782
	      0.1771751
	      0.1771750
	      0.1785777
	      0.1804049
	      0.1981953
	      0.2668092
	      0.1252060
	      0.0956549
	      0.0958149
	      0.1049944
	      0.1055451
	      0.1055450
	      0.1049942
	      0.0958147
	      0.0956546
	      0.1252050
	      0.0956550
	      0.1062542
	      0.1077673
	      0.1258266
	      0.1249937
	      0.1249933
	      0.1258260
	      0.1077669
	      0.1062532
	      0.0956546
	      0.0958147
	      0.1077668
	      0.0893881
	      0.1068609
	      0.1035135
	      0.1035130
	      0.1068602
	      0.0893878
	      0.1077654
	      0.0958140
	      0.1049941
	      0.1258259
	      0.1068609
	      0.1265775
	      0.1236697
	      0.1236691
	      0.1265767
	      0.1068608
	      0.1258243
	      0.1049929
	      0.1055448
	      0.1249930
	      0.1035135
	      0.1236697
	      0.1204374
	      0.1204367
	      0.1236691
	      0.1035135
	      0.1249914
	      0.1055436
	      0.1055448
	      0.1249925
	      0.1035128
	      0.1236688
	      0.1204364
	      0.1204357
	      0.1236682
	      0.1035128
	      0.1249909
	      0.1055436
	      0.1049939
	      0.1258251
	      0.1068599
	      0.1265764
	      0.1236688
	      0.1236682
	      0.1265757
	      0.1068597
	      0.1258235
	      0.1049927
	      0.0958144
	      0.1077661
	      0.0893875
	      0.1068605
	      0.1035133
	      0.1035129
	      0.1068598
	      0.0893871
	      0.1077647
	      0.0958136
	      0.0956544
	      0.1062528
	      0.1077645
	      0.1258234
	      0.1249906
	      0.1249903
	      0.1258228
	      0.1077642
	      0.1062518
	      0.0956540
	      0.1252055
	      0.0956544
	      0.0958136
	      0.1049926
	      0.1055434
	      0.1055433
	      0.1049924
	      0.0958135
	      0.0956541
	      0.1252045
	      1.5762455
	      0.8828759
	      0.8971181
	      0.9353573
	      0.8864848
	      0.8864821
	      0.9353521
	      0.8971147
	      0.8828680
	      1.5762138
	      0.8828689
	      0.1140749
	      0.1299544
	      0.1871850
	      0.1455535
	      0.1455524
	      0.1871840
	      0.1299578
	      0.1140770
	      0.8828494
	      0.8971089
	      0.1299538
	      0.1508429
	      0.2333558
	      0.1863147
	      0.1863133
	      0.2333543
	      0.1508462
	      0.1299558
	      0.8970860
	      0.9353487
	      0.1871857
	      0.2333573
	      0.3371390
	      0.2865921
	      0.2865905
	      0.3371367
	      0.2333600
	      0.1871872
	      0.9353242
	      0.8864755
	      0.1455543
	      0.1863162
	      0.2865919
	      0.2296619
	      0.2296604
	      0.2865897
	      0.1863194
	      0.1455565
	      0.8864518
	      0.8864721
	      0.1455525
	      0.1863138
	      0.2865890
	      0.2296591
	      0.2296576
	      0.2865868
	      0.1863170
	      0.1455548
	      0.8864484
	      0.9353424
	      0.1871841
	      0.2333548
	      0.3371352
	      0.2865882
	      0.2865866
	      0.3371329
	      0.2333575
	      0.1871857
	      0.9353179
	      0.8971060
	      0.1299587
	      0.1508480
	      0.2333605
	      0.1863199
	      0.1863185
	      0.2333591
	      0.1508513
	      0.1299607
	      0.8970830
	      0.8828594
	      0.1140776
	      0.1299568
	      0.1871873
	      0.1455567
	      0.1455556
	      0.1871864
	      0.1299601
	      0.1140796
	      0.8828399
	      1.5762014
	      0.8828409
	      0.8970773
	      0.9353145
	      0.8864417
	      0.8864391
	      0.9353093
	      0.8970738
	      0.8828329
	      1.5761696
