# vtk DataFile Version 3.0
test_file
ASCII
DATASET POLYDATA
POINTS 1000 float
   0.77500 	   -0.00000 	    0.00000
   0.77500 	   -0.00000 	    1.00000
   0.77500 	    0.00000 	    2.00000
   0.77500 	    0.00000 	    3.00000
   0.77500 	    0.00000 	    4.00000
   0.77500 	    0.00000 	    5.00000
   0.77500 	    0.00000 	    6.00000
   0.77500 	    0.00000 	    7.00000
   0.77500 	   -0.00000 	    8.00000
   0.77500 	    0.00000 	    9.00000
   0.77500 	    1.00000 	    0.00000
   0.77500 	    1.00000 	    1.00000
   0.77500 	    1.00000 	    2.00000
   0.77500 	    1.00000 	    3.00000
   0.77500 	    1.00000 	    4.00000
   0.77500 	    1.00000 	    5.00000
   0.77500 	    1.00000 	    6.00000
   0.77500 	    1.00000 	    7.00000
   0.77500 	    1.00000 	    8.00000
   0.77500 	    1.00000 	    9.00000
   0.77500 	    2.00000 	    0.00000
   0.77500 	    2.00000 	    1.00000
   0.77500 	    2.00000 	    2.00000
   0.77500 	    2.00000 	    3.00000
   0.77500 	    2.00000 	    4.00000
   0.77500 	    2.00000 	    5.00000
   0.77500 	    2.00000 	    6.00000
   0.77500 	    2.00000 	    7.00000
   0.77500 	    2.00000 	    8.00000
   0.77500 	    2.00000 	    9.00000
   0.77500 	    3.00000 	    0.00000
   0.77500 	    3.00000 	    1.00000
   0.77500 	    3.00000 	    2.00000
   0.77500 	    3.00000 	    3.00000
   0.77500 	    3.00000 	    4.00000
   0.77500 	    3.00000 	    5.00000
   0.77500 	    3.00000 	    6.00000
   0.77500 	    3.00000 	    7.00000
   0.77500 	    3.00000 	    8.00000
   0.77500 	    3.00000 	    9.00000
   0.77500 	    4.00000 	    0.00000
   0.77500 	    4.00000 	    1.00000
   0.77500 	    4.00000 	    2.00000
   0.77500 	    4.00000 	    3.00000
   0.77500 	    4.00000 	    4.00000
   0.77500 	    4.00000 	    5.00000
   0.77500 	    4.00000 	    6.00000
   0.77500 	    4.00000 	    7.00000
   0.77500 	    4.00000 	    8.00000
   0.77500 	    4.00000 	    9.00000
   0.77500 	    5.00000 	    0.00000
   0.77500 	    5.00000 	    1.00000
   0.77500 	    5.00000 	    2.00000
   0.77500 	    5.00000 	    3.00000
   0.77500 	    5.00000 	    4.00000
   0.77500 	    5.00000 	    5.00000
   0.77500 	    5.00000 	    6.00000
   0.77500 	    5.00000 	    7.00000
   0.77500 	    5.00000 	    8.00000
   0.77500 	    5.00000 	    9.00000
   0.77500 	    6.00000 	    0.00000
   0.77500 	    6.00000 	    1.00000
   0.77500 	    6.00000 	    2.00000
   0.77500 	    6.00000 	    3.00000
   0.77500 	    6.00000 	    4.00000
   0.77500 	    6.00000 	    5.00000
   0.77500 	    6.00000 	    6.00000
   0.77500 	    6.00000 	    7.00000
   0.77500 	    6.00000 	    8.00000
   0.77500 	    6.00000 	    9.00000
   0.77500 	    7.00000 	    0.00000
   0.77500 	    7.00000 	    1.00000
   0.77500 	    7.00000 	    2.00000
   0.77500 	    7.00000 	    3.00000
   0.77500 	    7.00000 	    4.00000
   0.77500 	    7.00000 	    5.00000
   0.77500 	    7.00000 	    6.00000
   0.77500 	    7.00000 	    7.00000
   0.77500 	    7.00000 	    8.00000
   0.77500 	    7.00000 	    9.00000
   0.77500 	    8.00000 	    0.00000
   0.77500 	    8.00000 	    1.00000
   0.77500 	    8.00000 	    2.00000
   0.77500 	    8.00000 	    3.00000
   0.77500 	    8.00000 	    4.00000
   0.77500 	    8.00000 	    5.00000
   0.77500 	    8.00000 	    6.00000
   0.77500 	    8.00000 	    7.00000
   0.77500 	    8.00000 	    8.00000
   0.77500 	    8.00000 	    9.00000
   0.77500 	    9.00000 	    0.00000
   0.77500 	    9.00000 	    1.00000
   0.77500 	    9.00000 	    2.00000
   0.77500 	    9.00000 	    3.00000
   0.77500 	    9.00000 	    4.00000
   0.77500 	    9.00000 	    5.00000
   0.77500 	    9.00000 	    6.00000
   0.77500 	    9.00000 	    7.00000
   0.77500 	    9.00000 	    8.00000
   0.77500 	    9.00000 	    9.00000
   1.78811 	   -0.14285 	   -0.14285
   1.77707 	   -0.15431 	    0.92327
   1.77475 	   -0.15457 	    1.95874
   1.78052 	   -0.15923 	    2.96705
   1.77662 	   -0.15877 	    3.98759
   1.77662 	   -0.15877 	    5.01241
   1.78052 	   -0.15923 	    6.03295
   1.77475 	   -0.15457 	    7.04126
   1.77707 	   -0.15431 	    8.07672
   1.78811 	   -0.14285 	    9.14285
   1.77707 	    0.92327 	   -0.15431
   1.75407 	    0.89653 	    0.89653
   1.74301 	    0.90670 	    1.94683
   1.74629 	    0.90264 	    2.94934
   1.74468 	    0.90652 	    3.98038
   1.74468 	    0.90652 	    5.01961
   1.74629 	    0.90264 	    6.05065
   1.74301 	    0.90670 	    7.05316
   1.75407 	    0.89653 	    8.10346
   1.77707 	    0.92328 	    9.15431
   1.77475 	    1.95874 	   -0.15457
   1.74301 	    1.94683 	    0.90670
   1.74804 	    1.95062 	    1.95062
   1.74784 	    1.95099 	    2.94025
   1.74986 	    1.95181 	    3.97676
   1.74986 	    1.95181 	    5.02323
   1.74784 	    1.95099 	    6.05975
   1.74804 	    1.95062 	    7.04938
   1.74301 	    1.94683 	    8.09329
   1.77475 	    1.95874 	    9.15456
   1.78052 	    2.96705 	   -0.15923
   1.74629 	    2.94934 	    0.90264
   1.74784 	    2.94024 	    1.95099
   1.74562 	    2.93881 	    2.93882
   1.74758 	    2.93833 	    3.97652
   1.74758 	    2.93833 	    5.02347
   1.74562 	    2.93881 	    6.06118
   1.74784 	    2.94025 	    7.04901
   1.74629 	    2.94934 	    8.09736
   1.78053 	    2.96705 	    9.15922
   1.77662 	    3.98758 	   -0.15877
   1.74468 	    3.98038 	    0.90653
   1.74986 	    3.97676 	    1.95181
   1.74758 	    3.97652 	    2.93833
   1.74944 	    3.97652 	    3.97652
   1.74944 	    3.97652 	    5.02347
   1.74758 	    3.97652 	    6.06166
   1.74986 	    3.97676 	    7.04818
   1.74468 	    3.98038 	    8.09347
   1.77662 	    3.98759 	    9.15876
   1.77662 	    5.01241 	   -0.15877
   1.74468 	    5.01960 	    0.90653
   1.74986 	    5.02323 	    1.95181
   1.74758 	    5.02347 	    2.93833
   1.74944 	    5.02346 	    3.97652
   1.74944 	    5.02346 	    5.02347
   1.74758 	    5.02347 	    6.06166
   1.74986 	    5.02323 	    7.04818
   1.74467 	    5.01960 	    8.09347
   1.77662 	    5.01241 	    9.15876
   1.78052 	    6.03295 	   -0.15923
   1.74629 	    6.05065 	    0.90264
   1.74784 	    6.05974 	    1.95099
   1.74562 	    6.06117 	    2.93882
   1.74758 	    6.06166 	    3.97652
   1.74758 	    6.06166 	    5.02347
   1.74562 	    6.06117 	    6.06118
   1.74784 	    6.05974 	    7.04901
   1.74629 	    6.05065 	    8.09736
   1.78052 	    6.03294 	    9.15922
   1.77475 	    7.04126 	   -0.15456
   1.74300 	    7.05316 	    0.90670
   1.74804 	    7.04938 	    1.95062
   1.74784 	    7.04901 	    2.94025
   1.74986 	    7.04818 	    3.97676
   1.74986 	    7.04818 	    5.02323
   1.74784 	    7.04901 	    6.05974
   1.74804 	    7.04937 	    7.04938
   1.74300 	    7.05316 	    8.09329
   1.77475 	    7.04126 	    9.15456
   1.77707 	    8.07672 	   -0.15431
   1.75407 	    8.10346 	    0.89654
   1.74300 	    8.09329 	    1.94683
   1.74629 	    8.09735 	    2.94934
   1.74467 	    8.09347 	    3.98038
   1.74467 	    8.09347 	    5.01961
   1.74629 	    8.09735 	    6.05065
   1.74300 	    8.09329 	    7.05316
   1.75407 	    8.10346 	    8.10346
   1.77707 	    8.07672 	    9.15430
   1.78811 	    9.14285 	   -0.14285
   1.77707 	    9.15431 	    0.92328
   1.77475 	    9.15456 	    1.95874
   1.78053 	    9.15922 	    2.96705
   1.77662 	    9.15876 	    3.98759
   1.77662 	    9.15876 	    5.01241
   1.78053 	    9.15922 	    6.03294
   1.77475 	    9.15456 	    7.04126
   1.77707 	    9.15430 	    8.07672
   1.78811 	    9.14284 	    9.14284
   2.60176 	   -0.20738 	   -0.20738
   2.63357 	   -0.21800 	    0.84621
   2.64378 	   -0.22574 	    1.89852
   2.64376 	   -0.23348 	    2.93765
   2.64048 	   -0.23795 	    3.97958
   2.64048 	   -0.23795 	    5.02041
   2.64376 	   -0.23348 	    6.06234
   2.64378 	   -0.22574 	    7.10147
   2.63357 	   -0.21799 	    8.15378
   2.60176 	   -0.20737 	    9.20738
   2.63357 	    0.84621 	   -0.21800
   2.70381 	    0.82825 	    0.82825
   2.72604 	    0.81814 	    1.90537
   2.72602 	    0.81153 	    2.94354
   2.72100 	    0.80461 	    3.98213
   2.72100 	    0.80461 	    5.01786
   2.72602 	    0.81153 	    6.05645
   2.72604 	    0.81814 	    7.09463
   2.70381 	    0.82825 	    8.17174
   2.63357 	    0.84622 	    9.21799
   2.64378 	    1.89852 	   -0.22574
   2.72604 	    1.90537 	    0.81814
   2.73741 	    1.90360 	    1.90361
   2.73010 	    1.90066 	    2.94482
   2.71916 	    1.89273 	    3.98069
   2.71916 	    1.89273 	    5.01930
   2.73010 	    1.90066 	    6.05517
   2.73741 	    1.90361 	    7.09638
   2.72604 	    1.90537 	    8.18185
   2.64379 	    1.89852 	    9.22573
   2.64376 	    2.93765 	   -0.23348
   2.72602 	    2.94354 	    0.81153
   2.73010 	    2.94482 	    1.90066
   2.72084 	    2.94232 	    2.94233
   2.70843 	    2.93953 	    3.97935
   2.70843 	    2.93953 	    5.02064
   2.72084 	    2.94232 	    6.05767
   2.73010 	    2.94482 	    7.09933
   2.72602 	    2.94354 	    8.18846
   2.64376 	    2.93765 	    9.23347
   2.64048 	    3.97958 	   -0.23795
   2.72100 	    3.98213 	    0.80462
   2.71916 	    3.98069 	    1.89274
   2.70843 	    3.97934 	    2.93953
   2.69543 	    3.97837 	    3.97838
   2.69543 	    3.97837 	    5.02161
   2.70843 	    3.97934 	    6.06046
   2.71916 	    3.98069 	    7.10725
   2.72100 	    3.98213 	    8.19537
   2.64048 	    3.97958 	    9.23794
   2.64048 	    5.02041 	   -0.23795
   2.72100 	    5.01786 	    0.80462
   2.71916 	    5.01930 	    1.89274
   2.70843 	    5.02064 	    2.93953
   2.69543 	    5.02161 	    3.97838
   2.69543 	    5.02161 	    5.02161
   2.70843 	    5.02064 	    6.06046
   2.71916 	    5.01930 	    7.10725
   2.72100 	    5.01786 	    8.19537
   2.64048 	    5.02041 	    9.23794
   2.64376 	    6.06234 	   -0.23348
   2.72602 	    6.05645 	    0.81153
   2.73010 	    6.05517 	    1.90066
   2.72084 	    6.05766 	    2.94233
   2.70843 	    6.06046 	    3.97935
   2.70843 	    6.06046 	    5.02064
   2.72084 	    6.05766 	    6.05767
   2.73010 	    6.05517 	    7.09933
[...]
POINT_DATA 1000
SCALARS C float
LOOKUP_TABLE default
	      1.2137709
	      0.6898148
	      0.6935576
	      0.7212924
	      0.6852711
	      0.6852681
	      0.7212875
	      0.6935560
	      0.6898075
	      1.2137432
	      0.6898087
	      0.1165106
	      0.1220065
	      0.1606683
	      0.1315778
	      0.1315760
	      0.1606664
	      0.1220101
	      0.1165106
	      0.6897915
	      0.6935496
	      0.1220060
	      0.1303161
	      0.1864772
	      0.1539096
	      0.1539075
	      0.1864746
	      0.1303198
	      0.1220077
	      0.6935292
	      0.7212850
	      0.1606690
	      0.1864788
	      0.2584637
	      0.2240979
	      0.2240956
	      0.2584604
	      0.1864818
	      0.1606705
	      0.7212633
	      0.6852630
	      0.1315783
	      0.1539110
	      0.2240976
	      0.1857838
	      0.1857817
	      0.2240947
	      0.1539141
	      0.1315801
	      0.6852418
	      0.6852592
	      0.1315756
	      0.1539077
	      0.2240940
	      0.1857804
	      0.1857783
	      0.2240910
	      0.1539108
	      0.1315774
	      0.6852380
	      0.7212792
	      0.1606661
	      0.1864749
	      0.2584588
	      0.2240931
	      0.2240908
	      0.2584556
	      0.1864780
	      0.1606676
	      0.7212576
	      0.6935487
	      0.1220109
	      0.1303216
	      0.1864822
	      0.1539143
	      0.1539121
	      0.1864795
	      0.1303254
	      0.1220126
	      0.6935283
	      0.6897997
	      0.1165103
	      0.1220085
	      0.1606702
	      0.1315798
	      0.1315779
	      0.1606683
	      0.1220121
	      0.1165104
	      0.6897826
	      1.2137334
	      0.6897838
	      0.6935219
	      0.7212551
	      0.6852329
	      0.6852299
	      0.7212502
	      0.6935203
	      0.6897765
	      1.2137056
	      0.0947054
	      0.0728983
	      0.0729750
	      0.0799210
	      0.0807212
	      0.0807212
	      0.0799209
	      0.0729748
	      0.0728980
	      0.0947048
	      0.0728985
	      0.0797292
	      0.0810267
	      0.0954485
	      0.0948832
	      0.0948830
	      0.0954487
	      0.0810261
	      0.0797289
	      0.0728977
	      0.0729748
	      0.0810264
	      0.0678466
	      0.0816037
	      0.0790260
	      0.0790258
	      0.0816045
	      0.0678458
	      0.0810262
	      0.0729735
	      0.0799206
	      0.0954479
	      0.0816033
	      0.0966974
	      0.0943633
	      0.0943630
	      0.0966982
	      0.0816025
	      0.0954476
	      0.0799189
	      0.0807209
	      0.0948828
	      0.0790259
	      0.0943635
	      0.0917915
	      0.0917912
	      0.0943644
	      0.0790251
	      0.0948824
	      0.0807192
	      0.0807209
	      0.0948826
	      0.0790255
	      0.0943630
	      0.0917911
	      0.0917908
	      0.0943639
	      0.0790248
	      0.0948822
	      0.0807192
	      0.0799206
	      0.0954483
	      0.0816044
	      0.0966984
	      0.0943644
	      0.0943641
	      0.0966993
	      0.0816035
	      0.0954480
	      0.0799189
	      0.0729744
	      0.0810256
	      0.0678453
	      0.0816023
	      0.0790249
	      0.0790246
	      0.0816032
	      0.0678445
	      0.0810253
	      0.0729732
	      0.0728978
	      0.0797289
	      0.0810256
	      0.0954472
	      0.0948820
	      0.0948818
	      0.0954474
	      0.0810250
	      0.0797286
	      0.0728970
	      0.0947050
	      0.0728974
	      0.0729731
	      0.0799185
	      0.0807189
	      0.0807189
	      0.0799185
	      0.0729730
	      0.0728971
	      0.0947044
	      0.2135546
	      0.1573053
	      0.1430829
	      0.1418900
	      0.1411100
	      0.1411099
	      0.1418896
	      0.1430822
	      0.1573039
	      0.2135525
	      0.1573054
	      0.1269595
	      0.1199083
	      0.1196779
	      0.1192038
	      0.1192037
	      0.1196775
	      0.1199075
	      0.1269583
	      0.1573049
	      0.1430830
	      0.1199079
	      0.1110345
	      0.1049625
	      0.1107087
	      0.1107087
	      0.1049626
	      0.1110325
	      0.1199059
	      0.1430824
	      0.1418899
	      0.1196772
	      0.1049619
	      0.0972099
	      0.1033371
	      0.1033358
	      0.0972094
	      0.1049607
	      0.1196751
	      0.1418891
	      0.1411098
	      0.1192031
	      0.1107082
	      0.1033368
	      0.1115657
	      0.1115650
	      0.1033367
	      0.1107066
	      0.1192006
	      0.1411089
	      0.1411096
	      0.1192029
	      0.1107083
	      0.1033356
	      0.1115644
	      0.1115637
	      0.1033354
	      0.1107068
	      0.1192005
	      0.1411087
	      0.1418892
	      0.1196767
	      0.1049619
	      0.0972093
	      0.1033364
	      0.1033351
	      0.0972088
	      0.1049606
	      0.1196745
	      0.1418884
	      0.1430816
	      0.1199066
	      0.1110314
	      0.1049600
	      0.1107063
	      0.1107062
	      0.1049600
	      0.1110295
	      0.1199047
	      0.1430810
	      0.1573033
	      0.1269581
	      0.1199051
	      0.1196743
	      0.1191999
	      0.1191997
	      0.1196738
	      0.1199043
	      0.1269569
	      0.1573029
	      0.2135522
	      0.1573044
	      0.1430818
	      0.1418887
	      0.1411086
	      0.1411085
	      0.1418883
	      0.1430811
	      0.1573030
	      0.2135500
	      0.2017461
	      0.1603281
	      0.1524982
	      0.1519151
	      0.1520161
	      0.1520159
	      0.1519146
	      0.1524975
	      0.1603269
	      0.2017447
	      0.1603285
	      0.1309784
	      0.1269772
	      0.1244810
	      0.1236540
	      0.1236537
	      0.1244804
	      0.1269766
	      0.1309787
	      0.1603281
	      0.1524986
	      0.1269775
	      0.1583217
	      0.1544589
	      0.1683723
	      0.1683718
	      0.1544591
	      0.1583209
	      0.1269786
	      0.1524976
	      0.1519153
	      0.1244812
	      0.1544582
	      0.1380982
	      0.1517909
	      0.1517899
	      0.1380983
	      0.1544575
	      0.1244820
	      0.1519141
	      0.1520161
	      0.1236541
	      0.1683716
	      0.1517910
	      0.1687441
	      0.1687434
	      0.1517913
	      0.1683709
	      0.1236545
	      0.1520147
	      0.1520158
	      0.1236537
	      0.1683713
	      0.1517898
	      0.1687428
	      0.1687421
	      0.1517901
	      0.1683706
	      0.1236541
	      0.1520144
	      0.1519143
	      0.1244802
	      0.1544584
	      0.1380982
	      0.1517912
	      0.1517902
	      0.1380983
	      0.1544577
	      0.1244810
	      0.1519131
	      0.1524970
	      0.1269765
	      0.1583202
	      0.1544569
	      0.1683704
	      0.1683699
	      0.1544571
	      0.1583194
	      0.1269775
	      0.1524960
	      0.1603263
	      0.1309791
	      0.1269785
	      0.1244819
	      0.1236545
	      0.1236542
	      0.1244813
	      0.1269778
	      0.1309794
	      0.1603259
	      0.2017445
	      0.1603275
	      0.1524971
	      0.1519138
	      0.1520146
	      0.1520144
	      0.1519133
	      0.1524963
	      0.1603263
	      0.2017431
	      0.1617925
	      0.1385626
	      0.1368820
	      0.1393645
	      0.1400977
	      0.1400976
	      0.1393642
	      0.1368815
	      0.1385620
	      0.1617923
	      0.1385633
	      0.1118482
	      0.1125075
	      0.1127762
	      0.1120337
	      0.1120335
	      0.1127758
	      0.1125070
	      0.1118491
	      0.1385640
	      0.1368827
	      0.1125081
	      0.1362711
	      0.1346070
	      0.1466024
	      0.1466032
	      0.1346074
	      0.1362682
	      0.1125095
	      0.1368829
	      0.1393652
	      0.1127769
	      0.1346058
	      0.1179892
	      0.1297537
	      0.1297548
	      0.1179894
	      0.1346021
	      0.1127778
	      0.1393652
	      0.1400982
	      0.1120341
	      0.1466013
	      0.1297539
	      0.1450965
	      0.1450974
	      0.1297540
	      0.1465982
	      0.1120354
	      0.1400981
	      0.1400979
	      0.1120339
	      0.1466022
	      0.1297548
	      0.1450976
	      0.1450985
	      0.1297549
	      0.1465991
	      0.1120352
	      0.1400978
	      0.1393643
	      0.1127761
	      0.1346066
	      0.1179892
	      0.1297541
	      0.1297551
	      0.1179893
	      0.1346029
	      0.1127770
	      0.1393643
	      0.1368814
	      0.1125071
	      0.1362667
	      0.1346013
	      0.1465973
	      0.1465980
	      0.1346017
	      0.1362638
	      0.1125085
	      0.1368816
	      0.1385619
	      0.1118496
	      0.1125096
	      0.1127781
	      0.1120358
	      0.1120356
	      0.1127777
	      0.1125091
	      0.1118505
	      0.1385627
	      0.1617929
	      0.1385639
	      0.1368828
	      0.1393653
	      0.1400984
	      0.1400983
	      0.1393649
	      0.1368823
	      0.1385633
	      0.1617927
	      0.1618121
	      0.1385590
	      0.1368592
	      0.1393636
	      0.1401298
	      0.1401297
	      0.1393632
	      0.1368588
	      0.1385585
	      0.1618119
	      0.1385596
	      0.1117671
	      0.1121283
	      0.1124554
	      0.1119112
	      0.1119110
	      0.1124550
	      0.1121278
	      0.1117677
	      0.1385605
	      0.1368600
	      0.1121289
	      0.1366508
	      0.1358135
	      0.1464161
	      0.1464163
	      0.1358138
	      0.1366496
	      0.1121298
	      0.1368602
	      0.1393642
	      0.1124561
	      0.1358125
	      0.1200994
	      0.1302993
	      0.1302999
	      0.1200994
	      0.1358109
	      0.1124565
	      0.1393641
	      0.1401303
	      0.1119116
	      0.1464151
	      0.1302994
	      0.1442630
	      0.1442634
	      0.1302993
	      0.1464140
	      0.1119123
	      0.1401302
	      0.1401300
	      0.1119113
	      0.1464156
	      0.1302999
	      0.1442634
	      0.1442638
	      0.1302997
	      0.1464145
	      0.1119119
	      0.1401299
	      0.1393634
	      0.1124552
	      0.1358133
	      0.1200991
	      0.1302993
	      0.1302998
	      0.1200991
	      0.1358117
	      0.1124557
	      0.1393633
	      0.1368587
	      0.1121278
	      0.1366486
	      0.1358105
	      0.1464134
	      0.1464136
	      0.1358108
	      0.1366474
	      0.1121287
	      0.1368589
	      0.1385584
	      0.1117680
	      0.1121297
	      0.1124568
	      0.1119126
	      0.1119123
	      0.1124564
	      0.1121293
	      0.1117686
	      0.1385593
	      0.1618126
	      0.1385604
	      0.1368601
	      0.1393643
	      0.1401305
	      0.1401304
	      0.1393639
	      0.1368596
	      0.1385599
	      0.1618125
	      0.2018694
	      0.1604031
	      0.1525741
	      0.1520121
	      0.1521246
	      0.1521244
	      0.1520116
	      0.1525733
	      0.1604021
	      0.2018680
	      0.1604035
	      0.1310053
	      0.1268656
	      0.1244336
	      0.1237730
	      0.1237728
	      0.1244330
	      0.1268648
	      0.1310051
	      0.1604032
	      0.1525744
	      0.1268659
	      0.1581090
	      0.1547251
	      0.1678188
	      0.1678182
	      0.1547248
	      0.1581087
	      0.1268662
	      0.1525734
	      0.1520123
	      0.1244338
	      0.1547244
	      0.1390921
	      0.1519528
	      0.1519517
	      0.1390913
	      0.1547242
	      0.1244339
	      0.1520108
	      0.1521246
	      0.1237730
	      0.1678183
	      0.1519529
	      0.1682296
	      0.1682285
	      0.1519522
	      0.1678183
	      0.1237724
	      0.1521231
	      0.1521242
	      0.1237725
	      0.1678179
	      0.1519515
	      0.1682278
	      0.1682267
	      0.1519508
	      0.1678179
	      0.1237720
	      0.1521227
	      0.1520113
	      0.1244328
	      0.1547243
	      0.1390909
	      0.1519520
	      0.1519509
	      0.1390901
	      0.1547240
	      0.1244328
	      0.1520098
	      0.1525728
	      0.1268645
	      0.1581081
	      0.1547236
	      0.1678181
	      0.1678174
	      0.1547233
	      0.1581077
	      0.1268649
	      0.1525718
	      0.1604015
	      0.1310053
	      0.1268659
	      0.1244337
	      0.1237722
	      0.1237720
	      0.1244331
	      0.1268651
	      0.1310052
	      0.1604013
	      0.2018680
	      0.1604026
	      0.1525728
	      0.1520105
	      0.1521229
	      0.1521227
	      0.1520100
	      0.1525721
	      0.1604016
	      0.2018666
	      0.2139246
	      0.1575636
	      0.1433925
	      0.1422182
	      0.1413892
	      0.1413890
	      0.1422177
	      0.1433917
	      0.1575623
	      0.2139221
	      0.1575637
	      0.1271151
	      0.1203198
	      0.1201731
	      0.1195553
	      0.1195552
	      0.1201725
	      0.1203192
	      0.1271146
	      0.1575622
	      0.1433924
	      0.1203198
	      0.1097282
	      0.1035013
	      0.1097722
	      0.1097728
	      0.1035013
	      0.1097269
	      0.1203196
	      0.1433905
	      0.1422179
	      0.1201727
	      0.1035008
	      0.0962769
	      0.1032927
	      0.1032926
	      0.0962763
	      0.1034996
	      0.1201726
	      0.1422158
	      0.1413887
	      0.1195548
	      0.1097718
	      0.1032926
	      0.1124129
	      0.1124131
	      0.1032924
	      0.1097706
	      0.1195543
	      0.1413865
	      0.1413884
	      0.1195547
	      0.1097726
	      0.1032925
	      0.1124128
	      0.1124130
	      0.1032924
	      0.1097714
	      0.1195542
	      0.1413862
	      0.1422171
	      0.1201720
	      0.1035006
	      0.0962761
	      0.1032923
	      0.1032922
	      0.0962755
	      0.1034994
	      0.1201718
	      0.1422149
	      0.1433910
	      0.1203187
	      0.1097261
	      0.1034989
	      0.1097704
	      0.1097710
	      0.1034989
	      0.1097249
	      0.1203185
	      0.1433891
	      0.1575615
	      0.1271147
	      0.1203191
	      0.1201720
	      0.1195538
	      0.1195537
	      0.1201714
	      0.1203185
	      0.1271142
	      0.1575600
	      0.2139214
	      0.1575614
	      0.1433898
	      0.1422151
	      0.1413860
	      0.1413858
	      0.1422146
	      0.1433890
	      0.1575601
	      0.2139189
	      0.0951973
	      0.0731924
	      0.0732749
	      0.0802350
	      0.0809908
	      0.0809907
	      0.0802348
	      0.0732748
	      0.0731923
	      0.0951966
	      0.0731925
	      0.0795681
	      0.0808922
	      0.0954161
	      0.0947693
	      0.0947690
	      0.0954157
	      0.0808919
	      0.0795675
	      0.0731923
	      0.0732748
	      0.0808918
	      0.0681093
	      0.0821668
	      0.0794345
	      0.0794341
	      0.0821662
	      0.0681091
	      0.0808910
	      0.0732743
	      0.0802348
	      0.0954156
	      0.0821668
	      0.0975512
	      0.0948933
	      0.0948928
	      0.0975506
	      0.0821667
	      0.0954146
	      0.0802338
	      0.0809906
	      0.0947688
	      0.0794345
	      0.0948933
	      0.0918578
	      0.0918574
	      0.0948928
	      0.0794344
	      0.0947678
	      0.0809896
	      0.0809906
	      0.0947685
	      0.0794339
	      0.0948926
	      0.0918571
	      0.0918567
	      0.0948920
	      0.0794339
	      0.0947675
	      0.0809895
	      0.0802346
	      0.0954151
	      0.0821660
	      0.0975504
	      0.0948925
	      0.0948920
	      0.0975497
	      0.0821659
	      0.0954140
	      0.0802336
	      0.0732746
	      0.0808913
	      0.0681089
	      0.0821664
	      0.0794342
	      0.0794339
	      0.0821659
	      0.0681087
	      0.0808905
	      0.0732741
	      0.0731923
	      0.0795674
	      0.0808904
	      0.0954139
	      0.0947672
	      0.0947670
	      0.0954135
	      0.0808901
	      0.0795668
	      0.0731920
	      0.0951971
	      0.0731923
	      0.0732741
	      0.0802336
	      0.0809894
	      0.0809894
	      0.0802334
	      0.0732740
	      0.0731922
	      0.0951964
	      1.2137764
	      0.6893613
	      0.6928537
	      0.7208694
	      0.6844603
	      0.6844583
	      0.7208652
	      0.6928502
	      0.6893534
	      1.2137492
	      0.6893556
	      0.1172000
	      0.1223028
	      0.1610633
	      0.1318599
	      0.1318592
	      0.1610626
	      0.1223049
	      0.1172006
	      0.6893388
	      0.6928460
	      0.1223022
	      0.1303376
	      0.1868381
	      0.1541015
	      0.1541005
	      0.1868370
	      0.1303397
	      0.1223031
	      0.6928266
	      0.7208620
	      0.1610635
	      0.1868392
	      0.2592508
	      0.2244141
	      0.2244130
	      0.2592491
	      0.1868408
	      0.1610641
	      0.7208415
	      0.6844525
	      0.1318601
	      0.1541025
	      0.2244140
	      0.1851726
	      0.1851717
	      0.2244125
	      0.1541044
	      0.1318610
	      0.6844325
	      0.6844498
	      0.1318590
	      0.1541007
	      0.2244119
	      0.1851708
	      0.1851698
	      0.2244105
	      0.1541027
	      0.1318599
	      0.6844298
	      0.7208570
	      0.1610624
	      0.1868373
	      0.2592480
	      0.2244115
	      0.2244103
	      0.2592463
	      0.1868389
	      0.1610630
	      0.7208364
	      0.6928427
	      0.1223053
	      0.1303409
	      0.1868411
	      0.1541047
	      0.1541036
	      0.1868399
	      0.1303429
	      0.1223061
	      0.6928232
	      0.6893458
	      0.1172007
	      0.1223034
	      0.1610638
	      0.1318608
	      0.1318601
	      0.1610632
	      0.1223055
	      0.1172013
	      0.6893290
	      1.2137386
	      0.6893312
	      0.6928191
	      0.7208333
	      0.6844240
	      0.6844219
	      0.7208291
	      0.6928156
	      0.6893234
	      1.2137115
