# vtk DataFile Version 3.0
test_file
ASCII
DATASET POLYDATA
POINTS 1000 float
   1.00000 	   -0.00000 	    0.00000
   1.00000 	   -0.00000 	    1.00000
   1.00000 	    0.00000 	    2.00000
   1.00000 	    0.00000 	    3.00000
   1.00000 	    0.00000 	    4.00000
   1.00000 	    0.00000 	    5.00000
   1.00000 	    0.00000 	    6.00000
   1.00000 	    0.00000 	    7.00000
   1.00000 	   -0.00000 	    8.00000
   1.00000 	    0.00000 	    9.00000
   1.00000 	    1.00000 	    0.00000
   1.00000 	    1.00000 	    1.00000
   1.00000 	    1.00000 	    2.00000
   1.00000 	    1.00000 	    3.00000
   1.00000 	    1.00000 	    4.00000
   1.00000 	    1.00000 	    5.00000
   1.00000 	    1.00000 	    6.00000
   1.00000 	    1.00000 	    7.00000
   1.00000 	    1.00000 	    8.00000
   1.00000 	    1.00000 	    9.00000
   1.00000 	    2.00000 	    0.00000
   1.00000 	    2.00000 	    1.00000
   1.00000 	    2.00000 	    2.00000
   1.00000 	    2.00000 	    3.00000
   1.00000 	    2.00000 	    4.00000
   1.00000 	    2.00000 	    5.00000
   1.00000 	    2.00000 	    6.00000
   1.00000 	    2.00000 	    7.00000
   1.00000 	    2.00000 	    8.00000
   1.00000 	    2.00000 	    9.00000
   1.00000 	    3.00000 	    0.00000
   1.00000 	    3.00000 	    1.00000
   1.00000 	    3.00000 	    2.00000
   1.00000 	    3.00000 	    3.00000
   1.00000 	    3.00000 	    4.00000
   1.00000 	    3.00000 	    5.00000
   1.00000 	    3.00000 	    6.00000
   1.00000 	    3.00000 	    7.00000
   1.00000 	    3.00000 	    8.00000
   1.00000 	    3.00000 	    9.00000
   1.00000 	    4.00000 	    0.00000
   1.00000 	    4.00000 	    1.00000
   1.00000 	    4.00000 	    2.00000
   1.00000 	    4.00000 	    3.00000
   1.00000 	    4.00000 	    4.00000
   1.00000 	    4.00000 	    5.00000
   1.00000 	    4.00000 	    6.00000
   1.00000 	    4.00000 	    7.00000
   1.00000 	    4.00000 	    8.00000
   1.00000 	    4.00000 	    9.00000
   1.00000 	    5.00000 	    0.00000
   1.00000 	    5.00000 	    1.00000
   1.00000 	    5.00000 	    2.00000
   1.00000 	    5.00000 	    3.00000
   1.00000 	    5.00000 	    4.00000
   1.00000 	    5.00000 	    5.00000
   1.00000 	    5.00000 	    6.00000
   1.00000 	    5.00000 	    7.00000
   1.00000 	    5.00000 	    8.00000
   1.00000 	    5.00000 	    9.00000
   1.00000 	    6.00000 	    0.00000
   1.00000 	    6.00000 	    1.00000
   1.00000 	    6.00000 	    2.00000
   1.00000 	    6.00000 	    3.00000
   1.00000 	    6.00000 	    4.00000
   1.00000 	    6.00000 	    5.00000
   1.00000 	    6.00000 	    6.00000
   1.00000 	    6.00000 	    7.00000
   1.00000 	    6.00000 	    8.00000
   1.00000 	    6.00000 	    9.00000
   1.00000 	    7.00000 	    0.00000
   1.00000 	    7.00000 	    1.00000
   1.00000 	    7.00000 	    2.00000
   1.00000 	    7.00000 	    3.00000
   1.00000 	    7.00000 	    4.00000
   1.00000 	    7.00000 	    5.00000
   1.00000 	    7.00000 	    6.00000
   1.00000 	    7.00000 	    7.00000
   1.00000 	    7.00000 	    8.00000
   1.00000 	    7.00000 	    9.00000
   1.00000 	    8.00000 	    0.00000
   1.00000 	    8.00000 	    1.00000
   1.00000 	    8.00000 	    2.00000
   1.00000 	    8.00000 	    3.00000
   1.00000 	    8.00000 	    4.00000
   1.00000 	    8.00000 	    5.00000
   1.00000 	    8.00000 	    6.00000
   1.00000 	    8.00000 	    7.00000
   1.00000 	    8.00000 	    8.00000
   1.00000 	    8.00000 	    9.00000
   1.00000 	    9.00000 	    0.00000
   1.00000 	    9.00000 	    1.00000
   1.00000 	    9.00000 	    2.00000
   1.00000 	    9.00000 	    3.00000
   1.00000 	    9.00000 	    4.00000
   1.00000 	    9.00000 	    5.00000
   1.00000 	    9.00000 	    6.00000
   1.00000 	    9.00000 	    7.00000
   1.00000 	    9.00000 	    8.00000
   1.00000 	    9.00000 	    9.00000
   2.01801 	   -0.19076 	   -0.19076
   2.00479 	   -0.20589 	    0.89987
   2.00298 	   -0.20574 	    1.94551
   2.01039 	   -0.21180 	    2.95679
   2.00502 	   -0.21106 	    3.98383
   2.00502 	   -0.21106 	    5.01617
   2.01039 	   -0.21180 	    6.04321
   2.00298 	   -0.20573 	    7.05449
   2.00479 	   -0.20589 	    8.10013
   2.01801 	   -0.19076 	    9.19076
   2.00479 	    0.89987 	   -0.20589
   1.96997 	    0.86604 	    0.86604
   1.95882 	    0.87884 	    1.92881
   1.96232 	    0.87434 	    2.93433
   1.96059 	    0.87851 	    3.97487
   1.96059 	    0.87851 	    5.02512
   1.96232 	    0.87434 	    6.06566
   1.95882 	    0.87884 	    7.07118
   1.96997 	    0.86604 	    8.13395
   2.00479 	    0.89987 	    9.20589
   2.00298 	    1.94551 	   -0.20573
   1.95882 	    1.92881 	    0.87885
   1.96669 	    1.93293 	    1.93293
   1.96618 	    1.93314 	    2.92298
   1.96830 	    1.93379 	    3.97036
   1.96830 	    1.93379 	    5.02963
   1.96618 	    1.93314 	    6.07701
   1.96668 	    1.93293 	    7.06706
   1.95882 	    1.92881 	    8.12115
   2.00298 	    1.94551 	    9.20573
   2.01039 	    2.95679 	   -0.21180
   1.96232 	    2.93433 	    0.87435
   1.96618 	    2.92298 	    1.93314
   1.96314 	    2.92115 	    2.92115
   1.96519 	    2.92044 	    3.96999
   1.96519 	    2.92044 	    5.03000
   1.96314 	    2.92115 	    6.07884
   1.96618 	    2.92298 	    7.06685
   1.96232 	    2.93433 	    8.12565
   2.01039 	    2.95679 	    9.21179
   2.00502 	    3.98382 	   -0.21105
   1.96059 	    3.97486 	    0.87851
   1.96830 	    3.97036 	    1.93380
   1.96519 	    3.96998 	    2.92044
   1.96704 	    3.96993 	    3.96994
   1.96704 	    3.96993 	    5.03005
   1.96519 	    3.96998 	    6.07955
   1.96830 	    3.97036 	    7.06620
   1.96059 	    3.97486 	    8.12148
   2.00503 	    3.98383 	    9.21105
   2.00502 	    5.01617 	   -0.21105
   1.96059 	    5.02512 	    0.87852
   1.96830 	    5.02962 	    1.93380
   1.96519 	    5.03000 	    2.92044
   1.96704 	    5.03005 	    3.96994
   1.96704 	    5.03005 	    5.03005
   1.96519 	    5.03000 	    6.07955
   1.96830 	    5.02962 	    7.06620
   1.96059 	    5.02512 	    8.12148
   2.00502 	    5.01617 	    9.21104
   2.01039 	    6.04321 	   -0.21179
   1.96232 	    6.06565 	    0.87435
   1.96618 	    6.07700 	    1.93314
   1.96314 	    6.07883 	    2.92115
   1.96519 	    6.07954 	    3.96999
   1.96519 	    6.07954 	    5.03000
   1.96314 	    6.07883 	    6.07883
   1.96618 	    6.07700 	    7.06685
   1.96232 	    6.06565 	    8.12565
   2.01039 	    6.04321 	    9.21179
   2.00298 	    7.05449 	   -0.20573
   1.95882 	    7.07118 	    0.87885
   1.96668 	    7.06706 	    1.93294
   1.96618 	    7.06685 	    2.92298
   1.96830 	    7.06620 	    3.97036
   1.96830 	    7.06620 	    5.02963
   1.96618 	    7.06685 	    6.07701
   1.96668 	    7.06706 	    7.06706
   1.95881 	    7.07118 	    8.12114
   2.00298 	    7.05449 	    9.20572
   2.00479 	    8.10013 	   -0.20589
   1.96997 	    8.13395 	    0.86605
   1.95882 	    8.12114 	    1.92881
   1.96232 	    8.12564 	    2.93433
   1.96059 	    8.12147 	    3.97487
   1.96059 	    8.12147 	    5.02512
   1.96232 	    8.12564 	    6.06566
   1.95881 	    8.12114 	    7.07118
   1.96997 	    8.13395 	    8.13395
   2.00479 	    8.10012 	    9.20588
   2.01801 	    9.19076 	   -0.19076
   2.00479 	    9.20588 	    0.89987
   2.00298 	    9.20572 	    1.94551
   2.01039 	    9.21179 	    2.95679
   2.00503 	    9.21104 	    3.98383
   2.00503 	    9.21104 	    5.01617
   2.01039 	    9.21178 	    6.04321
   2.00298 	    9.20572 	    7.05449
   2.00479 	    9.20588 	    8.10012
   2.01801 	    9.19075 	    9.19075
   2.77317 	   -0.27368 	   -0.27368
   2.81549 	   -0.28790 	    0.79735
   2.82977 	   -0.29774 	    1.86613
   2.83010 	   -0.30756 	    2.91795
   2.82584 	   -0.31333 	    3.97315
   2.82584 	   -0.31333 	    5.02684
   2.83010 	   -0.30756 	    6.08204
   2.82977 	   -0.29774 	    7.13386
   2.81549 	   -0.28790 	    8.20265
   2.77317 	   -0.27367 	    9.27367
   2.81549 	    0.79735 	   -0.28790
   2.90321 	    0.77361 	    0.77361
   2.93278 	    0.76184 	    1.87356
   2.93279 	    0.75369 	    2.92460
   2.92692 	    0.74425 	    3.97597
   2.92692 	    0.74425 	    5.02402
   2.93279 	    0.75369 	    6.07540
   2.93278 	    0.76184 	    7.12643
   2.90321 	    0.77361 	    8.22638
   2.81549 	    0.79735 	    9.28789
   2.82977 	    1.86613 	   -0.29774
   2.93278 	    1.87356 	    0.76184
   2.94931 	    1.87662 	    1.87662
   2.94164 	    1.87369 	    2.92449
   2.92785 	    1.86300 	    3.97607
   2.92784 	    1.86300 	    5.02392
   2.94164 	    1.87369 	    6.07550
   2.94930 	    1.87662 	    7.12337
   2.93279 	    1.87356 	    8.23814
   2.82977 	    1.86614 	    9.29773
   2.83011 	    2.91795 	   -0.30756
   2.93279 	    2.92459 	    0.75369
   2.94164 	    2.92449 	    1.87369
   2.93151 	    2.92197 	    2.92197
   2.91688 	    2.91785 	    3.97444
   2.91688 	    2.91785 	    5.02555
   2.93151 	    2.92197 	    6.07802
   2.94163 	    2.92449 	    7.12630
   2.93279 	    2.92460 	    8.24630
   2.83011 	    2.91795 	    9.30755
   2.82584 	    3.97315 	   -0.31333
   2.92692 	    3.97597 	    0.74425
   2.92785 	    3.97606 	    1.86300
   2.91688 	    3.97444 	    2.91785
   2.89963 	    3.97285 	    3.97285
   2.89963 	    3.97285 	    5.02714
   2.91687 	    3.97444 	    6.08214
   2.92784 	    3.97606 	    7.13698
   2.92693 	    3.97597 	    8.25573
   2.82584 	    3.97315 	    9.31332
   2.82584 	    5.02684 	   -0.31333
   2.92692 	    5.02402 	    0.74425
   2.92784 	    5.02392 	    1.86300
   2.91688 	    5.02555 	    2.91786
   2.89963 	    5.02713 	    3.97285
   2.89963 	    5.02713 	    5.02714
   2.91687 	    5.02555 	    6.08214
   2.92784 	    5.02392 	    7.13699
   2.92693 	    5.02402 	    8.25573
   2.82584 	    5.02683 	    9.31331
   2.83011 	    6.08204 	   -0.30756
   2.93279 	    6.07539 	    0.75369
   2.94164 	    6.07550 	    1.87369
   2.93151 	    6.07802 	    2.92197
   2.91687 	    6.08213 	    3.97444
   2.91688 	    6.08213 	    5.02555
   2.93151 	    6.07802 	    6.07802
   2.94163 	    6.07550 	    7.12630
[...]
POINT_DATA 1000
SCALARS C float
LOOKUP_TABLE default
	      1.4252899
	      0.8037370
	      0.8137461
	      0.8470676
	      0.8038003
	      0.8037966
	      0.8470616
	      0.8137450
	      0.8037301
	      1.4252585
	      0.8037298
	      0.1153799
	      0.1272610
	      0.1763513
	      0.1399762
	      0.1399738
	      0.1763489
	      0.1272659
	      0.1153811
	      0.8037102
	      0.8137369
	      0.1272607
	      0.1436868
	      0.2147104
	      0.1736120
	      0.1736092
	      0.2147070
	      0.1436919
	      0.1272638
	      0.8137132
	      0.8470592
	      0.1763526
	      0.2147125
	      0.3045457
	      0.2605030
	      0.2604995
	      0.3045411
	      0.2147171
	      0.1763555
	      0.8470337
	      0.8037910
	      0.1399772
	      0.1736139
	      0.2605026
	      0.2110313
	      0.2110278
	      0.2604981
	      0.1736188
	      0.1399806
	      0.8037660
	      0.8037865
	      0.1399738
	      0.1736096
	      0.2604973
	      0.2110259
	      0.2110224
	      0.2604928
	      0.1736145
	      0.1399772
	      0.8037614
	      0.8470523
	      0.1763489
	      0.2147075
	      0.3045389
	      0.2604959
	      0.2604925
	      0.3045343
	      0.2147121
	      0.1763518
	      0.8470268
	      0.8137368
	      0.1272671
	      0.1436944
	      0.2147176
	      0.1736192
	      0.1736164
	      0.2147142
	      0.1436995
	      0.1272702
	      0.8137131
	      0.8037216
	      0.1153811
	      0.1272650
	      0.1763555
	      0.1399806
	      0.1399782
	      0.1763531
	      0.1272699
	      0.1153823
	      0.8037019
	      1.4252479
	      0.8037016
	      0.8137050
	      0.8470244
	      0.8037559
	      0.8037522
	      0.8470184
	      0.8137039
	      0.8036947
	      1.4252165
	      0.1118195
	      0.0857288
	      0.0859061
	      0.0941564
	      0.0948168
	      0.0948167
	      0.0941564
	      0.0859058
	      0.0857282
	      0.1118188
	      0.0857290
	      0.0949780
	      0.0962401
	      0.1125949
	      0.1117145
	      0.1117143
	      0.1125951
	      0.0962394
	      0.0949773
	      0.0857277
	      0.0859058
	      0.0962397
	      0.0787229
	      0.0940013
	      0.0905684
	      0.0905679
	      0.0940020
	      0.0787221
	      0.0962391
	      0.0859041
	      0.0941559
	      0.1125942
	      0.0940009
	      0.1109477
	      0.1078185
	      0.1078181
	      0.1109484
	      0.0939999
	      0.1125934
	      0.0941536
	      0.0948163
	      0.1117140
	      0.0905682
	      0.1078187
	      0.1044778
	      0.1044772
	      0.1078193
	      0.0905672
	      0.1117131
	      0.0948141
	      0.0948163
	      0.1117137
	      0.0905676
	      0.1078180
	      0.1044768
	      0.1044762
	      0.1078186
	      0.0905667
	      0.1117128
	      0.0948141
	      0.0941559
	      0.1125945
	      0.0940018
	      0.1109486
	      0.1078192
	      0.1078187
	      0.1109493
	      0.0940008
	      0.1125937
	      0.0941536
	      0.0859053
	      0.0962387
	      0.0787214
	      0.0939997
	      0.0905669
	      0.0905665
	      0.0940004
	      0.0787206
	      0.0962381
	      0.0859036
	      0.0857278
	      0.0949772
	      0.0962384
	      0.1125928
	      0.1117126
	      0.1117123
	      0.1125930
	      0.0962376
	      0.0949765
	      0.0857266
	      0.1118190
	      0.0857274
	      0.0859035
	      0.0941531
	      0.0948137
	      0.0948136
	      0.0941530
	      0.0859033
	      0.0857267
	      0.1118183
	      0.2447672
	      0.1811535
	      0.1648068
	      0.1632134
	      0.1619861
	      0.1619861
	      0.1632131
	      0.1648060
	      0.1811520
	      0.2447650
	      0.1811536
	      0.1494320
	      0.1420876
	      0.1418358
	      0.1408267
	      0.1408264
	      0.1418354
	      0.1420868
	      0.1494304
	      0.1811535
	      0.1648069
	      0.1420872
	      0.1310174
	      0.1240198
	      0.1331691
	      0.1331680
	      0.1240206
	      0.1310157
	      0.1420853
	      0.1648066
	      0.1632134
	      0.1418349
	      0.1240188
	      0.1152784
	      0.1256156
	      0.1256153
	      0.1152800
	      0.1240164
	      0.1418327
	      0.1632129
	      0.1619860
	      0.1408259
	      0.1331687
	      0.1256163
	      0.1359713
	      0.1359702
	      0.1256173
	      0.1331675
	      0.1408233
	      0.1619856
	      0.1619859
	      0.1408256
	      0.1331669
	      0.1256152
	      0.1359701
	      0.1359690
	      0.1256162
	      0.1331657
	      0.1408230
	      0.1619854
	      0.1632127
	      0.1418343
	      0.1240203
	      0.1152804
	      0.1256173
	      0.1256170
	      0.1152819
	      0.1240179
	      0.1418322
	      0.1632123
	      0.1648055
	      0.1420858
	      0.1310143
	      0.1240162
	      0.1331664
	      0.1331654
	      0.1240170
	      0.1310126
	      0.1420840
	      0.1648052
	      0.1811514
	      0.1494303
	      0.1420843
	      0.1418317
	      0.1408225
	      0.1408222
	      0.1418313
	      0.1420835
	      0.1494287
	      0.1811513
	      0.2447649
	      0.1811529
	      0.1648061
	      0.1632126
	      0.1619854
	      0.1619853
	      0.1632122
	      0.1648053
	      0.1811514
	      0.2447628
	      0.2290003
	      0.1834099
	      0.1747392
	      0.1740712
	      0.1740575
	      0.1740574
	      0.1740708
	      0.1747384
	      0.1834086
	      0.2289990
	      0.1834104
	      0.1514938
	      0.1470075
	      0.1439206
	      0.1427824
	      0.1427820
	      0.1439201
	      0.1470067
	      0.1514942
	      0.1834103
	      0.1747397
	      0.1470080
	      0.1864138
	      0.1780772
	      0.1984419
	      0.1984423
	      0.1780781
	      0.1864111
	      0.1470086
	      0.1747391
	      0.1740715
	      0.1439209
	      0.1780760
	      0.1521319
	      0.1721327
	      0.1721329
	      0.1521324
	      0.1780724
	      0.1439211
	      0.1740708
	      0.1740577
	      0.1427825
	      0.1984408
	      0.1721327
	      0.1954624
	      0.1954624
	      0.1721329
	      0.1984380
	      0.1427828
	      0.1740569
	      0.1740574
	      0.1427822
	      0.1984410
	      0.1721326
	      0.1954623
	      0.1954623
	      0.1721327
	      0.1984382
	      0.1427825
	      0.1740566
	      0.1740707
	      0.1439201
	      0.1780773
	      0.1521324
	      0.1721326
	      0.1721328
	      0.1521329
	      0.1780737
	      0.1439203
	      0.1740700
	      0.1747381
	      0.1470067
	      0.1864093
	      0.1780716
	      0.1984367
	      0.1984371
	      0.1780725
	      0.1864065
	      0.1470073
	      0.1747375
	      0.1834081
	      0.1514945
	      0.1470085
	      0.1439211
	      0.1427830
	      0.1427826
	      0.1439206
	      0.1470077
	      0.1514949
	      0.1834081
	      0.2289989
	      0.1834098
	      0.1747387
	      0.1740707
	      0.1740569
	      0.1740568
	      0.1740703
	      0.1747380
	      0.1834086
	      0.2289976
	      0.1806450
	      0.1571379
	      0.1557981
	      0.1588405
	      0.1596424
	      0.1596423
	      0.1588401
	      0.1557976
	      0.1571373
	      0.1806449
	      0.1571387
	      0.1275318
	      0.1277755
	      0.1274258
	      0.1261769
	      0.1261765
	      0.1274250
	      0.1277748
	      0.1275329
	      0.1571398
	      0.1557990
	      0.1277762
	      0.1692663
	      0.1645828
	      0.1796321
	      0.1796320
	      0.1645829
	      0.1692656
	      0.1277772
	      0.1557994
	      0.1588413
	      0.1274266
	      0.1645820
	      0.1377856
	      0.1527101
	      0.1527090
	      0.1377849
	      0.1645816
	      0.1274277
	      0.1588412
	      0.1596430
	      0.1261774
	      0.1796313
	      0.1527100
	      0.1752809
	      0.1752805
	      0.1527097
	      0.1796309
	      0.1261780
	      0.1596428
	      0.1596426
	      0.1261769
	      0.1796314
	      0.1527090
	      0.1752803
	      0.1752798
	      0.1527087
	      0.1796310
	      0.1261775
	      0.1596424
	      0.1588402
	      0.1274253
	      0.1645820
	      0.1377850
	      0.1527096
	      0.1527085
	      0.1377843
	      0.1645816
	      0.1274265
	      0.1588402
	      0.1557976
	      0.1277751
	      0.1692643
	      0.1645807
	      0.1796303
	      0.1796302
	      0.1645807
	      0.1692636
	      0.1277761
	      0.1557980
	      0.1571372
	      0.1275334
	      0.1277775
	      0.1274280
	      0.1261784
	      0.1261780
	      0.1274272
	      0.1277767
	      0.1275345
	      0.1571383
	      0.1806457
	      0.1571397
	      0.1557994
	      0.1588414
	      0.1596432
	      0.1596430
	      0.1588410
	      0.1557989
	      0.1571390
	      0.1806456
	      0.1806609
	      0.1571800
	      0.1558755
	      0.1589200
	      0.1597068
	      0.1597066
	      0.1589197
	      0.1558750
	      0.1571795
	      0.1806608
	      0.1571808
	      0.1275887
	      0.1280138
	      0.1277369
	      0.1264523
	      0.1264520
	      0.1277362
	      0.1280131
	      0.1275895
	      0.1571820
	      0.1558764
	      0.1280145
	      0.1700691
	      0.1649055
	      0.1806070
	      0.1806075
	      0.1649059
	      0.1700677
	      0.1280155
	      0.1558767
	      0.1589209
	      0.1277376
	      0.1649046
	      0.1373923
	      0.1527172
	      0.1527165
	      0.1373914
	      0.1649030
	      0.1277387
	      0.1589207
	      0.1597074
	      0.1264527
	      0.1806061
	      0.1527171
	      0.1751036
	      0.1751033
	      0.1527166
	      0.1806049
	      0.1264534
	      0.1597071
	      0.1597070
	      0.1264525
	      0.1806067
	      0.1527164
	      0.1751033
	      0.1751031
	      0.1527159
	      0.1806055
	      0.1264531
	      0.1597068
	      0.1589198
	      0.1277365
	      0.1649050
	      0.1373914
	      0.1527165
	      0.1527158
	      0.1373904
	      0.1649034
	      0.1277377
	      0.1589197
	      0.1558750
	      0.1280134
	      0.1700663
	      0.1649021
	      0.1806041
	      0.1806046
	      0.1649025
	      0.1700648
	      0.1280144
	      0.1558753
	      0.1571795
	      0.1275898
	      0.1280158
	      0.1277391
	      0.1264539
	      0.1264536
	      0.1277384
	      0.1280151
	      0.1275907
	      0.1571806
	      0.1806617
	      0.1571819
	      0.1558767
	      0.1589209
	      0.1597075
	      0.1597073
	      0.1589205
	      0.1558762
	      0.1571814
	      0.1806617
	      0.2291061
	      0.1835139
	      0.1748714
	      0.1742082
	      0.1741865
	      0.1741863
	      0.1742077
	      0.1748707
	      0.1835129
	      0.2291049
	      0.1835144
	      0.1514894
	      0.1469967
	      0.1439032
	      0.1426628
	      0.1426624
	      0.1439025
	      0.1469960
	      0.1514895
	      0.1835143
	      0.1748719
	      0.1469971
	      0.1859404
	      0.1775490
	      0.1981960
	      0.1981977
	      0.1775501
	      0.1859374
	      0.1469978
	      0.1748710
	      0.1742085
	      0.1439036
	      0.1775482
	      0.1514111
	      0.1718029
	      0.1718044
	      0.1514111
	      0.1775443
	      0.1439041
	      0.1742073
	      0.1741867
	      0.1426629
	      0.1981948
	      0.1718027
	      0.1954406
	      0.1954420
	      0.1718026
	      0.1981918
	      0.1426635
	      0.1741854
	      0.1741863
	      0.1426624
	      0.1981964
	      0.1718041
	      0.1954425
	      0.1954439
	      0.1718040
	      0.1981934
	      0.1426630
	      0.1741850
	      0.1742075
	      0.1439026
	      0.1775494
	      0.1514109
	      0.1718023
	      0.1718038
	      0.1514109
	      0.1775454
	      0.1439031
	      0.1742062
	      0.1748703
	      0.1469958
	      0.1859355
	      0.1775435
	      0.1981904
	      0.1981921
	      0.1775446
	      0.1859325
	      0.1469966
	      0.1748693
	      0.1835123
	      0.1514896
	      0.1469976
	      0.1439041
	      0.1426636
	      0.1426631
	      0.1439035
	      0.1469970
	      0.1514897
	      0.1835123
	      0.2291049
	      0.1835138
	      0.1748705
	      0.1742070
	      0.1741854
	      0.1741852
	      0.1742066
	      0.1748699
	      0.1835128
	      0.2291037
	      0.2451441
	      0.1813831
	      0.1650118
	      0.1634317
	      0.1622437
	      0.1622435
	      0.1634312
	      0.1650110
	      0.1813817
	      0.2451416
	      0.1813833
	      0.1494193
	      0.1418499
	      0.1415499
	      0.1405487
	      0.1405483
	      0.1415491
	      0.1418492
	      0.1494186
	      0.1813818
	      0.1650117
	      0.1418497
	      0.1311425
	      0.1245513
	      0.1332276
	      0.1332264
	      0.1245514
	      0.1311429
	      0.1418499
	      0.1650097
	      0.1634314
	      0.1415494
	      0.1245510
	      0.1161801
	      0.1260741
	      0.1260729
	      0.1161803
	      0.1245514
	      0.1415490
	      0.1634291
	      0.1622433
	      0.1405482
	      0.1332279
	      0.1260746
	      0.1364219
	      0.1364203
	      0.1260745
	      0.1332294
	      0.1405476
	      0.1622410
	      0.1622430
	      0.1405477
	      0.1332259
	      0.1260726
	      0.1364200
	      0.1364185
	      0.1260725
	      0.1332274
	      0.1405471
	      0.1622407
	      0.1634305
	      0.1415485
	      0.1245517
	      0.1161808
	      0.1260743
	      0.1260731
	      0.1161810
	      0.1245522
	      0.1415481
	      0.1634282
	      0.1650102
	      0.1418486
	      0.1311422
	      0.1245517
	      0.1332290
	      0.1332277
	      0.1245518
	      0.1311426
	      0.1418488
	      0.1650082
	      0.1813808
	      0.1494188
	      0.1418493
	      0.1415484
	      0.1405470
	      0.1405465
	      0.1415476
	      0.1418486
	      0.1494181
	      0.1813793
	      0.2451409
	      0.1813809
	      0.1650089
	      0.1634284
	      0.1622404
	      0.1622403
	      0.1634279
	      0.1650081
	      0.1813795
	      0.2451383
	      0.1122466
	      0.0859777
	      0.0861416
	      0.0944162
	      0.0951147
	      0.0951146
	      0.0944160
	      0.0861414
	      0.0859774
	      0.1122457
	      0.0859778
	      0.0949820
	      0.0962482
	      0.1126658
	      0.1118293
	      0.1118291
	      0.1126652
	      0.0962477
	      0.0949810
	      0.0859775
	      0.0861415
	      0.0962477
	      0.0787192
	      0.0939485
	      0.0904537
	      0.0904532
	      0.0939476
	      0.0787185
	      0.0962462
	      0.0861408
	      0.0944160
	      0.1126650
	      0.0939484
	      0.1107488
	      0.1074537
	      0.1074532
	      0.1107478
	      0.0939475
	      0.1126631
	      0.0944148
	      0.0951144
	      0.1118286
	      0.0904535
	      0.1074535
	      0.1038326
	      0.1038320
	      0.1074524
	      0.0904526
	      0.1118266
	      0.0951132
	      0.0951143
	      0.1118282
	      0.0904527
	      0.1074526
	      0.1038316
	      0.1038310
	      0.1074515
	      0.0904517
	      0.1118262
	      0.0951131
	      0.0944157
	      0.1126643
	      0.0939471
	      0.1107471
	      0.1074519
	      0.1074514
	      0.1107461
	      0.0939462
	      0.1126624
	      0.0944146
	      0.0861412
	      0.0962469
	      0.0787180
	      0.0939470
	      0.0904521
	      0.0904516
	      0.0939461
	      0.0787174
	      0.0962454
	      0.0861405
	      0.0859773
	      0.0949807
	      0.0962453
	      0.1126622
	      0.1118258
	      0.1118255
	      0.1126617
	      0.0962449
	      0.0949797
	      0.0859770
	      0.1122462
	      0.0859774
	      0.0861406
	      0.0944145
	      0.0951130
	      0.0951129
	      0.0944143
	      0.0861404
	      0.0859772
	      0.1122454
	      1.4247967
	      0.8034826
	      0.8134282
	      0.8470367
	      0.8037798
	      0.8037775
	      0.8470319
	      0.8134247
	      0.8034745
	      1.4247666
	      0.8034760
	      0.1163392
	      0.1279204
	      0.1770387
	      0.1407881
	      0.1407873
	      0.1770381
	      0.1279235
	      0.1163407
	      0.8034576
	      0.8134195
	      0.1279198
	      0.1436027
	      0.2145210
	      0.1735581
	      0.1735569
	      0.2145197
	      0.1436057
	      0.1279213
	      0.8133978
	      0.8470284
	      0.1770392
	      0.2145225
	      0.3043205
	      0.2605973
	      0.2605955
	      0.3043181
	      0.2145251
	      0.1770404
	      0.8470049
	      0.8037709
	      0.1407888
	      0.1735596
	      0.2605971
	      0.2117093
	      0.2117075
	      0.2605951
	      0.1735630
	      0.1407906
	      0.8037479
	      0.8037679
	      0.1407874
	      0.1735574
	      0.2605941
	      0.2117063
	      0.2117045
	      0.2605920
	      0.1735609
	      0.1407891
	      0.8037449
	      0.8470229
	      0.1770381
	      0.2145203
	      0.3043168
	      0.2605937
	      0.2605918
	      0.3043144
	      0.2145229
	      0.1770393
	      0.8469995
	      0.8134166
	      0.1279241
	      0.1436073
	      0.2145257
	      0.1735636
	      0.1735623
	      0.2145244
	      0.1436103
	      0.1279257
	      0.8133949
	      0.8034664
	      0.1163409
	      0.1279220
	      0.1770404
	      0.1407906
	      0.1407898
	      0.1770398
	      0.1279250
	      0.1163424
	      0.8034480
	      1.4247552
	      0.8034495
	      0.8133896
	      0.8469959
	      0.8037383
	      0.8037360
	      0.8469912
	      0.8133861
	      0.8034415
	      1.4247251
