# vtk DataFile Version 3.0
test_file
ASCII
DATASET POLYDATA
POINTS 1000 float
   1.02500 	   -0.00000 	    0.00000
   1.02500 	   -0.00000 	    1.00000
   1.02500 	    0.00000 	    2.00000
   1.02500 	    0.00000 	    3.00000
   1.02500 	    0.00000 	    4.00000
   1.02500 	    0.00000 	    5.00000
   1.02500 	    0.00000 	    6.00000
   1.02500 	    0.00000 	    7.00000
   1.02500 	   -0.00000 	    8.00000
   1.02500 	    0.00000 	    9.00000
   1.02500 	    1.00000 	    0.00000
   1.02500 	    1.00000 	    1.00000
   1.02500 	    1.00000 	    2.00000
   1.02500 	    1.00000 	    3.00000
   1.02500 	    1.00000 	    4.00000
   1.02500 	    1.00000 	    5.00000
   1.02500 	    1.00000 	    6.00000
   1.02500 	    1.00000 	    7.00000
   1.02500 	    1.00000 	    8.00000
   1.02500 	    1.00000 	    9.00000
   1.02500 	    2.00000 	    0.00000
   1.02500 	    2.00000 	    1.00000
   1.02500 	    2.00000 	    2.00000
   1.02500 	    2.00000 	    3.00000
   1.02500 	    2.00000 	    4.00000
   1.02500 	    2.00000 	    5.00000
   1.02500 	    2.00000 	    6.00000
   1.02500 	    2.00000 	    7.00000
   1.02500 	    2.00000 	    8.00000
   1.02500 	    2.00000 	    9.00000
   1.02500 	    3.00000 	    0.00000
   1.02500 	    3.00000 	    1.00000
   1.02500 	    3.00000 	    2.00000
   1.02500 	    3.00000 	    3.00000
   1.02500 	    3.00000 	    4.00000
   1.02500 	    3.00000 	    5.00000
   1.02500 	    3.00000 	    6.00000
   1.02500 	    3.00000 	    7.00000
   1.02500 	    3.00000 	    8.00000
   1.02500 	    3.00000 	    9.00000
   1.02500 	    4.00000 	    0.00000
   1.02500 	    4.00000 	    1.00000
   1.02500 	    4.00000 	    2.00000
   1.02500 	    4.00000 	    3.00000
   1.02500 	    4.00000 	    4.00000
   1.02500 	    4.00000 	    5.00000
   1.02500 	    4.00000 	    6.00000
   1.02500 	    4.00000 	    7.00000
   1.02500 	    4.00000 	    8.00000
   1.02500 	    4.00000 	    9.00000
   1.02500 	    5.00000 	    0.00000
   1.02500 	    5.00000 	    1.00000
   1.02500 	    5.00000 	    2.00000
   1.02500 	    5.00000 	    3.00000
   1.02500 	    5.00000 	    4.00000
   1.02500 	    5.00000 	    5.00000
   1.02500 	    5.00000 	    6.00000
   1.02500 	    5.00000 	    7.00000
   1.02500 	    5.00000 	    8.00000
   1.02500 	    5.00000 	    9.00000
   1.02500 	    6.00000 	    0.00000
   1.02500 	    6.00000 	    1.00000
   1.02500 	    6.00000 	    2.00000
   1.02500 	    6.00000 	    3.00000
   1.02500 	    6.00000 	    4.00000
   1.02500 	    6.00000 	    5.00000
   1.02500 	    6.00000 	    6.00000
   1.02500 	    6.00000 	    7.00000
   1.02500 	    6.00000 	    8.00000
   1.02500 	    6.00000 	    9.00000
   1.02500 	    7.00000 	    0.00000
   1.02500 	    7.00000 	    1.00000
   1.02500 	    7.00000 	    2.00000
   1.02500 	    7.00000 	    3.00000
   1.02500 	    7.00000 	    4.00000
   1.02500 	    7.00000 	    5.00000
   1.02500 	    7.00000 	    6.00000
   1.02500 	    7.00000 	    7.00000
   1.02500 	    7.00000 	    8.00000
   1.02500 	    7.00000 	    9.00000
   1.02500 	    8.00000 	    0.00000
   1.02500 	    8.00000 	    1.00000
   1.02500 	    8.00000 	    2.00000
   1.02500 	    8.00000 	    3.00000
   1.02500 	    8.00000 	    4.00000
   1.02500 	    8.00000 	    5.00000
   1.02500 	    8.00000 	    6.00000
   1.02500 	    8.00000 	    7.00000
   1.02500 	    8.00000 	    8.00000
   1.02500 	    8.00000 	    9.00000
   1.02500 	    9.00000 	    0.00000
   1.02500 	    9.00000 	    1.00000
   1.02500 	    9.00000 	    2.00000
   1.02500 	    9.00000 	    3.00000
   1.02500 	    9.00000 	    4.00000
   1.02500 	    9.00000 	    5.00000
   1.02500 	    9.00000 	    6.00000
   1.02500 	    9.00000 	    7.00000
   1.02500 	    9.00000 	    8.00000
   1.02500 	    9.00000 	    9.00000
   2.04344 	   -0.19631 	   -0.19631
   2.03004 	   -0.21186 	    0.89723
   2.02828 	   -0.21164 	    1.94401
   2.03586 	   -0.21786 	    2.95562
   2.03034 	   -0.21708 	    3.98340
   2.03034 	   -0.21708 	    5.01660
   2.03586 	   -0.21786 	    6.04438
   2.02828 	   -0.21163 	    7.05599
   2.03004 	   -0.21185 	    8.10276
   2.04345 	   -0.19630 	    9.19630
   2.03004 	    0.89723 	   -0.21186
   1.99389 	    0.86262 	    0.86262
   1.98275 	    0.87578 	    1.92679
   1.98623 	    0.87126 	    2.93262
   1.98450 	    0.87547 	    3.97423
   1.98450 	    0.87547 	    5.02576
   1.98623 	    0.87126 	    6.06737
   1.98275 	    0.87578 	    7.07321
   1.99389 	    0.86262 	    8.13737
   2.03004 	    0.89724 	    9.21185
   2.02828 	    1.94401 	   -0.21163
   1.98275 	    1.92678 	    0.87578
   1.99105 	    1.93099 	    1.93099
   1.99051 	    1.93122 	    2.92106
   1.99267 	    1.93187 	    3.96961
   1.99267 	    1.93187 	    5.03038
   1.99051 	    1.93122 	    6.07893
   1.99105 	    1.93099 	    7.06900
   1.98275 	    1.92678 	    8.12421
   2.02829 	    1.94401 	    9.21163
   2.03586 	    2.95562 	   -0.21786
   1.98623 	    2.93262 	    0.87127
   1.99050 	    2.92106 	    1.93122
   1.98735 	    2.91921 	    2.91922
   1.98946 	    2.91849 	    3.96922
   1.98946 	    2.91849 	    5.03076
   1.98735 	    2.91921 	    6.08077
   1.99050 	    2.92106 	    7.06877
   1.98623 	    2.93262 	    8.12873
   2.03586 	    2.95562 	    9.21785
   2.03034 	    3.98340 	   -0.21708
   1.98450 	    3.97423 	    0.87547
   1.99267 	    3.96960 	    1.93188
   1.98946 	    3.96922 	    2.91849
   1.99134 	    3.96918 	    3.96919
   1.99134 	    3.96918 	    5.03080
   1.98946 	    3.96922 	    6.08150
   1.99267 	    3.96960 	    7.06812
   1.98450 	    3.97423 	    8.12452
   2.03034 	    3.98340 	    9.21707
   2.03034 	    5.01660 	   -0.21707
   1.98450 	    5.02575 	    0.87547
   1.99267 	    5.03038 	    1.93188
   1.98946 	    5.03076 	    2.91849
   1.99134 	    5.03080 	    3.96919
   1.99135 	    5.03080 	    5.03080
   1.98946 	    5.03076 	    6.08150
   1.99267 	    5.03038 	    7.06812
   1.98450 	    5.02575 	    8.12452
   2.03034 	    5.01660 	    9.21707
   2.03586 	    6.04438 	   -0.21785
   1.98623 	    6.06736 	    0.87127
   1.99051 	    6.07892 	    1.93122
   1.98735 	    6.08077 	    2.91922
   1.98946 	    6.08149 	    3.96922
   1.98946 	    6.08149 	    5.03076
   1.98735 	    6.08077 	    6.08077
   1.99050 	    6.07892 	    7.06877
   1.98623 	    6.06736 	    8.12873
   2.03586 	    6.04437 	    9.21785
   2.02828 	    7.05599 	   -0.21163
   1.98275 	    7.07320 	    0.87578
   1.99105 	    7.06900 	    1.93099
   1.99050 	    7.06877 	    2.92106
   1.99267 	    7.06812 	    3.96961
   1.99267 	    7.06812 	    5.03038
   1.99050 	    7.06877 	    6.07892
   1.99105 	    7.06900 	    7.06900
   1.98274 	    7.07320 	    8.12421
   2.02828 	    7.05599 	    9.21162
   2.03004 	    8.10276 	   -0.21185
   1.99389 	    8.13737 	    0.86263
   1.98275 	    8.12421 	    1.92679
   1.98623 	    8.12872 	    2.93263
   1.98450 	    8.12452 	    3.97424
   1.98450 	    8.12452 	    5.02576
   1.98623 	    8.12872 	    6.06737
   1.98274 	    8.12421 	    7.07320
   1.99389 	    8.13736 	    8.13737
   2.03004 	    8.10276 	    9.21185
   2.04345 	    9.19630 	   -0.19630
   2.03004 	    9.21185 	    0.89724
   2.02829 	    9.21162 	    1.94401
   2.03586 	    9.21785 	    2.95562
   2.03034 	    9.21706 	    3.98340
   2.03034 	    9.21706 	    5.01660
   2.03586 	    9.21784 	    6.04438
   2.02828 	    9.21162 	    7.05599
   2.03004 	    9.21184 	    8.10276
   2.04345 	    9.19630 	    9.19629
   2.79202 	   -0.28120 	   -0.28120
   2.83557 	   -0.29586 	    0.79178
   2.85032 	   -0.30594 	    1.86244
   2.85069 	   -0.31600 	    2.91571
   2.84631 	   -0.32191 	    3.97242
   2.84631 	   -0.32191 	    5.02757
   2.85069 	   -0.31600 	    6.08429
   2.85032 	   -0.30594 	    7.13755
   2.83557 	   -0.29585 	    8.20821
   2.79202 	   -0.28119 	    9.28120
   2.83557 	    0.79178 	   -0.29585
   2.92528 	    0.76737 	    0.76738
   2.95571 	    0.75538 	    1.86990
   2.95569 	    0.74700 	    2.92249
   2.94972 	    0.73733 	    3.97525
   2.94972 	    0.73733 	    5.02474
   2.95569 	    0.74700 	    6.07751
   2.95571 	    0.75538 	    7.13009
   2.92528 	    0.76738 	    8.23261
   2.83557 	    0.79178 	    9.29584
   2.85033 	    1.86244 	   -0.30594
   2.95571 	    1.86990 	    0.75538
   2.97314 	    1.87322 	    1.87323
   2.96525 	    1.86994 	    2.92235
   2.95097 	    1.85886 	    3.97497
   2.95097 	    1.85886 	    5.02502
   2.96525 	    1.86994 	    6.07765
   2.97314 	    1.87323 	    7.12676
   2.95572 	    1.86990 	    8.24461
   2.85033 	    1.86244 	    9.30593
   2.85070 	    2.91570 	   -0.31600
   2.95569 	    2.92248 	    0.74700
   2.96525 	    2.92234 	    1.86994
   2.95465 	    2.91997 	    2.91998
   2.93954 	    2.91557 	    3.97334
   2.93954 	    2.91557 	    5.02665
   2.95465 	    2.91998 	    6.08001
   2.96525 	    2.92234 	    7.13005
   2.95569 	    2.92248 	    8.25299
   2.85070 	    2.91571 	    9.31599
   2.84631 	    3.97242 	   -0.32191
   2.94972 	    3.97525 	    0.73734
   2.95097 	    3.97497 	    1.85887
   2.93954 	    3.97334 	    2.91558
   2.92168 	    3.97174 	    3.97174
   2.92168 	    3.97174 	    5.02825
   2.93954 	    3.97334 	    6.08441
   2.95097 	    3.97497 	    7.14112
   2.94972 	    3.97525 	    8.26265
   2.84632 	    3.97242 	    9.32190
   2.84631 	    5.02757 	   -0.32191
   2.94972 	    5.02474 	    0.73734
   2.95097 	    5.02501 	    1.85886
   2.93954 	    5.02665 	    2.91558
   2.92168 	    5.02824 	    3.97174
   2.92168 	    5.02824 	    5.02825
   2.93954 	    5.02665 	    6.08441
   2.95097 	    5.02501 	    7.14112
   2.94972 	    5.02474 	    8.26265
   2.84632 	    5.02757 	    9.32189
   2.85070 	    6.08428 	   -0.31600
   2.95569 	    6.07750 	    0.74700
   2.96525 	    6.07764 	    1.86994
   2.95465 	    6.08001 	    2.91998
   2.93954 	    6.08441 	    3.97334
   2.93954 	    6.08441 	    5.02665
   2.95465 	    6.08001 	    6.08001
   2.96524 	    6.07764 	    7.13004
[...]
POINT_DATA 1000
SCALARS C float
LOOKUP_TABLE default
	      1.4499989
	      0.8168125
	      0.8275320
	      0.8616708
	      0.8175976
	      0.8175938
	      0.8616647
	      0.8275310
	      0.8168056
	      1.4499672
	      0.8168052
	      0.1151453
	      0.1277195
	      0.1781734
	      0.1410001
	      0.1409977
	      0.1781709
	      0.1277245
	      0.1151467
	      0.8167853
	      0.8275228
	      0.1277192
	      0.1448620
	      0.2177368
	      0.1756851
	      0.1756822
	      0.2177332
	      0.1448673
	      0.1277224
	      0.8274987
	      0.8616623
	      0.1781748
	      0.2177390
	      0.3098588
	      0.2648511
	      0.2648475
	      0.3098541
	      0.2177437
	      0.1781778
	      0.8616364
	      0.8175882
	      0.1410012
	      0.1756870
	      0.2648507
	      0.2144091
	      0.2144055
	      0.2648461
	      0.1756921
	      0.1410047
	      0.8175628
	      0.8175836
	      0.1409977
	      0.1756826
	      0.2648452
	      0.2144036
	      0.2144000
	      0.2648406
	      0.1756877
	      0.1410012
	      0.8175581
	      0.8616553
	      0.1781710
	      0.2177338
	      0.3098518
	      0.2648438
	      0.2648403
	      0.3098471
	      0.2177386
	      0.1781740
	      0.8616294
	      0.8275227
	      0.1277258
	      0.1448699
	      0.2177443
	      0.1756926
	      0.1756896
	      0.2177408
	      0.1448752
	      0.1277291
	      0.8274986
	      0.8167970
	      0.1151467
	      0.1277237
	      0.1781779
	      0.1410047
	      0.1410023
	      0.1781754
	      0.1277288
	      0.1151480
	      0.8167771
	      1.4499564
	      0.8167767
	      0.8274904
	      0.8616270
	      0.8175526
	      0.8175488
	      0.8616209
	      0.8274894
	      0.8167698
	      1.4499247
	      0.1139040
	      0.0872767
	      0.0874419
	      0.0958341
	      0.0964749
	      0.0964749
	      0.0958340
	      0.0874416
	      0.0872761
	      0.1139033
	      0.0872769
	      0.0968062
	      0.0980455
	      0.1146793
	      0.1138536
	      0.1138533
	      0.1146795
	      0.0980448
	      0.0968056
	      0.0872756
	      0.0874415
	      0.0980451
	      0.0801623
	      0.0957629
	      0.0924735
	      0.0924732
	      0.0957637
	      0.0801613
	      0.0980444
	      0.0874398
	      0.0958335
	      0.1146786
	      0.0957625
	      0.1131219
	      0.1102092
	      0.1102089
	      0.1131227
	      0.0957615
	      0.1146778
	      0.0958312
	      0.0964745
	      0.1138531
	      0.0924733
	      0.1102094
	      0.1070855
	      0.1070850
	      0.1102101
	      0.0924723
	      0.1138521
	      0.0964723
	      0.0964745
	      0.1138528
	      0.0924729
	      0.1102088
	      0.1070847
	      0.1070843
	      0.1102096
	      0.0924719
	      0.1138518
	      0.0964722
	      0.0958335
	      0.1146789
	      0.0957635
	      0.1131229
	      0.1102101
	      0.1102097
	      0.1131237
	      0.0957625
	      0.1146781
	      0.0958312
	      0.0874410
	      0.0980440
	      0.0801607
	      0.0957613
	      0.0924720
	      0.0924717
	      0.0957621
	      0.0801598
	      0.0980434
	      0.0874393
	      0.0872757
	      0.0968054
	      0.0980437
	      0.1146772
	      0.1138516
	      0.1138513
	      0.1146774
	      0.0980430
	      0.0968047
	      0.0872744
	      0.1139035
	      0.0872753
	      0.0874393
	      0.0958307
	      0.0964718
	      0.0964718
	      0.0958307
	      0.0874390
	      0.0872746
	      0.1139028
	      0.2483292
	      0.1838818
	      0.1672720
	      0.1656160
	      0.1643410
	      0.1643409
	      0.1656157
	      0.1672711
	      0.1838803
	      0.2483270
	      0.1838820
	      0.1520382
	      0.1445778
	      0.1442467
	      0.1432881
	      0.1432878
	      0.1442463
	      0.1445769
	      0.1520366
	      0.1838818
	      0.1672721
	      0.1445773
	      0.1331162
	      0.1257988
	      0.1346955
	      0.1346940
	      0.1257993
	      0.1331148
	      0.1445752
	      0.1672718
	      0.1656160
	      0.1442458
	      0.1257977
	      0.1167756
	      0.1268153
	      0.1268146
	      0.1167771
	      0.1257956
	      0.1442432
	      0.1656156
	      0.1643409
	      0.1432872
	      0.1346952
	      0.1268160
	      0.1368880
	      0.1368864
	      0.1268169
	      0.1346944
	      0.1432842
	      0.1643405
	      0.1643407
	      0.1432869
	      0.1346930
	      0.1268145
	      0.1368860
	      0.1368844
	      0.1268154
	      0.1346922
	      0.1432839
	      0.1643404
	      0.1656153
	      0.1442451
	      0.1257991
	      0.1167774
	      0.1268168
	      0.1268162
	      0.1167789
	      0.1257970
	      0.1442426
	      0.1656150
	      0.1672707
	      0.1445758
	      0.1331135
	      0.1257954
	      0.1346933
	      0.1346918
	      0.1257959
	      0.1331122
	      0.1445737
	      0.1672704
	      0.1838798
	      0.1520365
	      0.1445741
	      0.1442421
	      0.1432833
	      0.1432831
	      0.1442417
	      0.1445732
	      0.1520349
	      0.1838796
	      0.2483269
	      0.1838813
	      0.1672714
	      0.1656153
	      0.1643404
	      0.1643403
	      0.1656149
	      0.1672705
	      0.1838797
	      0.2483248
	      0.2320457
	      0.1860434
	      0.1773096
	      0.1766378
	      0.1766054
	      0.1766052
	      0.1766375
	      0.1773088
	      0.1860421
	      0.2320444
	      0.1860439
	      0.1538918
	      0.1494976
	      0.1463875
	      0.1452350
	      0.1452347
	      0.1463871
	      0.1494968
	      0.1538922
	      0.1860439
	      0.1773101
	      0.1494981
	      0.1898024
	      0.1815298
	      0.2025914
	      0.2025919
	      0.1815307
	      0.1897994
	      0.1494988
	      0.1773095
	      0.1766382
	      0.1463878
	      0.1815285
	      0.1554193
	      0.1761224
	      0.1761228
	      0.1554200
	      0.1815249
	      0.1463883
	      0.1766375
	      0.1766056
	      0.1452352
	      0.2025904
	      0.1761225
	      0.2001972
	      0.2001972
	      0.1761228
	      0.2025875
	      0.1452357
	      0.1766048
	      0.1766053
	      0.1452349
	      0.2025906
	      0.1761226
	      0.2001972
	      0.2001972
	      0.1761229
	      0.2025878
	      0.1452353
	      0.1766045
	      0.1766373
	      0.1463870
	      0.1815298
	      0.1554200
	      0.1761226
	      0.1761231
	      0.1554207
	      0.1815262
	      0.1463875
	      0.1766366
	      0.1773085
	      0.1494968
	      0.1897977
	      0.1815240
	      0.2025862
	      0.2025867
	      0.1815249
	      0.1897947
	      0.1494975
	      0.1773079
	      0.1860416
	      0.1538925
	      0.1494987
	      0.1463882
	      0.1452358
	      0.1452355
	      0.1463878
	      0.1494980
	      0.1538929
	      0.1860416
	      0.2320443
	      0.1860434
	      0.1773092
	      0.1766373
	      0.1766048
	      0.1766047
	      0.1766370
	      0.1773084
	      0.1860421
	      0.2320430
	      0.1826493
	      0.1591900
	      0.1579105
	      0.1610017
	      0.1617943
	      0.1617941
	      0.1610014
	      0.1579100
	      0.1591893
	      0.1826492
	      0.1591908
	      0.1293506
	      0.1297562
	      0.1294204
	      0.1280955
	      0.1280951
	      0.1294197
	      0.1297555
	      0.1293518
	      0.1591919
	      0.1579114
	      0.1297569
	      0.1723102
	      0.1674498
	      0.1827034
	      0.1827031
	      0.1674498
	      0.1723094
	      0.1297579
	      0.1579117
	      0.1610025
	      0.1294213
	      0.1674488
	      0.1398875
	      0.1550482
	      0.1550469
	      0.1398869
	      0.1674485
	      0.1294224
	      0.1610025
	      0.1617949
	      0.1280961
	      0.1827026
	      0.1550481
	      0.1780270
	      0.1780266
	      0.1550477
	      0.1827019
	      0.1280967
	      0.1617947
	      0.1617945
	      0.1280955
	      0.1827024
	      0.1550468
	      0.1780263
	      0.1780259
	      0.1550465
	      0.1827018
	      0.1280962
	      0.1617943
	      0.1610015
	      0.1294200
	      0.1674489
	      0.1398869
	      0.1550477
	      0.1550464
	      0.1398863
	      0.1674486
	      0.1294211
	      0.1610015
	      0.1579100
	      0.1297557
	      0.1723081
	      0.1674477
	      0.1827013
	      0.1827009
	      0.1674476
	      0.1723073
	      0.1297567
	      0.1579103
	      0.1591893
	      0.1293523
	      0.1297581
	      0.1294226
	      0.1280971
	      0.1280967
	      0.1294219
	      0.1297574
	      0.1293535
	      0.1591904
	      0.1826500
	      0.1591918
	      0.1579118
	      0.1610027
	      0.1617951
	      0.1617949
	      0.1610024
	      0.1579113
	      0.1591912
	      0.1826500
	      0.1826714
	      0.1592263
	      0.1579679
	      0.1610547
	      0.1618283
	      0.1618281
	      0.1610543
	      0.1579675
	      0.1592258
	      0.1826714
	      0.1592271
	      0.1293755
	      0.1298228
	      0.1294655
	      0.1280950
	      0.1280947
	      0.1294648
	      0.1298222
	      0.1293765
	      0.1592283
	      0.1579689
	      0.1298235
	      0.1734431
	      0.1681857
	      0.1840253
	      0.1840259
	      0.1681861
	      0.1734415
	      0.1298244
	      0.1579692
	      0.1610555
	      0.1294662
	      0.1681846
	      0.1399495
	      0.1553282
	      0.1553276
	      0.1399488
	      0.1681831
	      0.1294673
	      0.1610554
	      0.1618289
	      0.1280955
	      0.1840243
	      0.1553280
	      0.1778782
	      0.1778781
	      0.1553276
	      0.1840230
	      0.1280961
	      0.1618287
	      0.1618285
	      0.1280952
	      0.1840251
	      0.1553275
	      0.1778782
	      0.1778781
	      0.1553271
	      0.1840238
	      0.1280958
	      0.1618283
	      0.1610545
	      0.1294651
	      0.1681852
	      0.1399488
	      0.1553275
	      0.1553269
	      0.1399480
	      0.1681836
	      0.1294662
	      0.1610544
	      0.1579675
	      0.1298224
	      0.1734401
	      0.1681822
	      0.1840222
	      0.1840228
	      0.1681825
	      0.1734386
	      0.1298233
	      0.1579678
	      0.1592257
	      0.1293767
	      0.1298247
	      0.1294676
	      0.1280966
	      0.1280963
	      0.1294669
	      0.1298240
	      0.1293776
	      0.1592269
	      0.1826723
	      0.1592282
	      0.1579692
	      0.1610556
	      0.1618291
	      0.1618289
	      0.1610552
	      0.1579688
	      0.1592277
	      0.1826724
	      0.2321679
	      0.1861539
	      0.1774439
	      0.1767836
	      0.1767419
	      0.1767417
	      0.1767832
	      0.1774432
	      0.1861529
	      0.2321666
	      0.1861544
	      0.1538838
	      0.1494013
	      0.1462790
	      0.1450272
	      0.1450267
	      0.1462783
	      0.1494007
	      0.1538839
	      0.1861544
	      0.1774445
	      0.1494017
	      0.1896695
	      0.1811913
	      0.2024483
	      0.2024500
	      0.1811922
	      0.1896666
	      0.1494027
	      0.1774435
	      0.1767840
	      0.1462794
	      0.1811904
	      0.1547006
	      0.1757103
	      0.1757119
	      0.1547007
	      0.1811865
	      0.1462802
	      0.1767828
	      0.1767421
	      0.1450274
	      0.2024471
	      0.1757101
	      0.2000154
	      0.2000167
	      0.1757099
	      0.2024443
	      0.1450281
	      0.1767408
	      0.1767417
	      0.1450268
	      0.2024486
	      0.1757117
	      0.2000173
	      0.2000185
	      0.1757115
	      0.2024459
	      0.1450276
	      0.1767404
	      0.1767829
	      0.1462784
	      0.1811915
	      0.1547004
	      0.1757097
	      0.1757114
	      0.1547005
	      0.1811877
	      0.1462792
	      0.1767817
	      0.1774428
	      0.1494005
	      0.1896648
	      0.1811858
	      0.2024430
	      0.2024446
	      0.1811868
	      0.1896619
	      0.1494014
	      0.1774419
	      0.1861524
	      0.1538841
	      0.1494025
	      0.1462803
	      0.1450282
	      0.1450277
	      0.1462796
	      0.1494019
	      0.1538842
	      0.1861523
	      0.2321667
	      0.1861539
	      0.1774431
	      0.1767826
	      0.1767408
	      0.1767406
	      0.1767821
	      0.1774424
	      0.1861529
	      0.2321655
	      0.2487074
	      0.1841173
	      0.1674957
	      0.1658688
	      0.1646347
	      0.1646346
	      0.1658683
	      0.1674949
	      0.1841159
	      0.2487049
	      0.1841175
	      0.1520601
	      0.1444668
	      0.1441941
	      0.1432498
	      0.1432494
	      0.1441934
	      0.1444661
	      0.1520593
	      0.1841160
	      0.1674957
	      0.1444667
	      0.1327255
	      0.1257164
	      0.1344138
	      0.1344120
	      0.1257163
	      0.1327261
	      0.1444666
	      0.1674936
	      0.1658685
	      0.1441936
	      0.1257160
	      0.1169497
	      0.1270022
	      0.1270008
	      0.1169498
	      0.1257165
	      0.1441928
	      0.1658663
	      0.1646343
	      0.1432492
	      0.1344141
	      0.1270028
	      0.1375691
	      0.1375671
	      0.1270025
	      0.1344158
	      0.1432481
	      0.1646320
	      0.1646340
	      0.1432488
	      0.1344116
	      0.1270004
	      0.1375666
	      0.1375646
	      0.1270001
	      0.1344133
	      0.1432477
	      0.1646317
	      0.1658677
	      0.1441927
	      0.1257166
	      0.1169502
	      0.1270022
	      0.1270008
	      0.1169503
	      0.1257171
	      0.1441919
	      0.1658654
	      0.1674941
	      0.1444654
	      0.1327253
	      0.1257168
	      0.1344154
	      0.1344136
	      0.1257167
	      0.1327259
	      0.1444653
	      0.1674921
	      0.1841150
	      0.1520595
	      0.1444659
	      0.1441921
	      0.1432475
	      0.1432471
	      0.1441913
	      0.1444652
	      0.1520587
	      0.1841135
	      0.2487042
	      0.1841151
	      0.1674928
	      0.1658656
	      0.1646315
	      0.1646313
	      0.1658651
	      0.1674920
	      0.1841137
	      0.2487016
	      0.1143250
	      0.0875119
	      0.0876584
	      0.0960638
	      0.0967281
	      0.0967280
	      0.0960636
	      0.0876582
	      0.0875116
	      0.1143241
	      0.0875121
	      0.0967903
	      0.0980762
	      0.1147602
	      0.1139391
	      0.1139388
	      0.1147596
	      0.0980758
	      0.0967894
	      0.0875117
	      0.0876583
	      0.0980757
	      0.0803493
	      0.0960010
	      0.0925689
	      0.0925685
	      0.0960002
	      0.0803486
	      0.0980742
	      0.0876576
	      0.0960635
	      0.1147595
	      0.0960009
	      0.1133728
	      0.1101645
	      0.1101641
	      0.1133719
	      0.0960001
	      0.1147576
	      0.0960624
	      0.0967278
	      0.1139384
	      0.0925687
	      0.1101644
	      0.1065848
	      0.1065843
	      0.1101634
	      0.0925678
	      0.1139364
	      0.0967266
	      0.0967277
	      0.1139380
	      0.0925680
	      0.1101637
	      0.1065839
	      0.1065835
	      0.1101627
	      0.0925671
	      0.1139360
	      0.0967266
	      0.0960633
	      0.1147587
	      0.0959997
	      0.1133713
	      0.1101629
	      0.1101625
	      0.1133705
	      0.0959988
	      0.1147568
	      0.0960622
	      0.0876580
	      0.0980749
	      0.0803482
	      0.0959996
	      0.0925674
	      0.0925670
	      0.0959988
	      0.0803475
	      0.0980734
	      0.0876573
	      0.0875115
	      0.0967890
	      0.0980734
	      0.1147567
	      0.1139356
	      0.1139353
	      0.1147561
	      0.0980729
	      0.0967880
	      0.0875112
	      0.1143246
	      0.0875117
	      0.0876573
	      0.0960621
	      0.0967264
	      0.0967263
	      0.0960619
	      0.0876572
	      0.0875114
	      0.1143238
	      1.4494997
	      0.8165319
	      0.8271440
	      0.8614604
	      0.8173438
	      0.8173414
	      0.8614555
	      0.8271405
	      0.8165238
	      1.4494694
	      0.8165253
	      0.1160778
	      0.1283786
	      0.1788136
	      0.1417564
	      0.1417555
	      0.1788130
	      0.1283817
	      0.1160794
	      0.8165067
	      0.8271352
	      0.1283780
	      0.1448710
	      0.2175792
	      0.1757051
	      0.1757038
	      0.2175779
	      0.1448741
	      0.1283796
	      0.8271132
	      0.8614520
	      0.1788142
	      0.2175807
	      0.3095276
	      0.2648300
	      0.2648281
	      0.3095252
	      0.2175835
	      0.1788154
	      0.8614283
	      0.8173348
	      0.1417571
	      0.1757065
	      0.2648297
	      0.2148838
	      0.2148821
	      0.2648277
	      0.1757101
	      0.1417589
	      0.8173116
	      0.8173317
	      0.1417556
	      0.1757044
	      0.2648267
	      0.2148808
	      0.2148790
	      0.2648247
	      0.1757079
	      0.1417574
	      0.8173085
	      0.8614464
	      0.1788130
	      0.2175785
	      0.3095239
	      0.2648263
	      0.2648244
	      0.3095215
	      0.2175812
	      0.1788142
	      0.8614227
	      0.8271322
	      0.1283824
	      0.1448757
	      0.2175840
	      0.1757106
	      0.1757094
	      0.2175827
	      0.1448788
	      0.1283840
	      0.8271102
	      0.8165156
	      0.1160797
	      0.1283802
	      0.1788154
	      0.1417590
	      0.1417581
	      0.1788148
	      0.1283834
	      0.1160812
	      0.8164971
	      1.4494577
	      0.8164985
	      0.8271050
	      0.8614192
	      0.8173019
	      0.8172995
	      0.8614143
	      0.8271014
	      0.8164904
	      1.4494274
