# vtk DataFile Version 3.0
test_file
ASCII
DATASET POLYDATA
POINTS 1000 float
   0.40000 	   -0.00000 	    0.00000
   0.40000 	   -0.00000 	    1.00000
   0.40000 	    0.00000 	    2.00000
   0.40000 	    0.00000 	    3.00000
   0.40000 	    0.00000 	    4.00000
   0.40000 	    0.00000 	    5.00000
   0.40000 	    0.00000 	    6.00000
   0.40000 	    0.00000 	    7.00000
   0.40000 	   -0.00000 	    8.00000
   0.40000 	    0.00000 	    9.00000
   0.40000 	    1.00000 	    0.00000
   0.40000 	    1.00000 	    1.00000
   0.40000 	    1.00000 	    2.00000
   0.40000 	    1.00000 	    3.00000
   0.40000 	    1.00000 	    4.00000
   0.40000 	    1.00000 	    5.00000
   0.40000 	    1.00000 	    6.00000
   0.40000 	    1.00000 	    7.00000
   0.40000 	    1.00000 	    8.00000
   0.40000 	    1.00000 	    9.00000
   0.40000 	    2.00000 	    0.00000
   0.40000 	    2.00000 	    1.00000
   0.40000 	    2.00000 	    2.00000
   0.40000 	    2.00000 	    3.00000
   0.40000 	    2.00000 	    4.00000
   0.40000 	    2.00000 	    5.00000
   0.40000 	    2.00000 	    6.00000
   0.40000 	    2.00000 	    7.00000
   0.40000 	    2.00000 	    8.00000
   0.40000 	    2.00000 	    9.00000
   0.40000 	    3.00000 	    0.00000
   0.40000 	    3.00000 	    1.00000
   0.40000 	    3.00000 	    2.00000
   0.40000 	    3.00000 	    3.00000
   0.40000 	    3.00000 	    4.00000
   0.40000 	    3.00000 	    5.00000
   0.40000 	    3.00000 	    6.00000
   0.40000 	    3.00000 	    7.00000
   0.40000 	    3.00000 	    8.00000
   0.40000 	    3.00000 	    9.00000
   0.40000 	    4.00000 	    0.00000
   0.40000 	    4.00000 	    1.00000
   0.40000 	    4.00000 	    2.00000
   0.40000 	    4.00000 	    3.00000
   0.40000 	    4.00000 	    4.00000
   0.40000 	    4.00000 	    5.00000
   0.40000 	    4.00000 	    6.00000
   0.40000 	    4.00000 	    7.00000
   0.40000 	    4.00000 	    8.00000
   0.40000 	    4.00000 	    9.00000
   0.40000 	    5.00000 	    0.00000
   0.40000 	    5.00000 	    1.00000
   0.40000 	    5.00000 	    2.00000
   0.40000 	    5.00000 	    3.00000
   0.40000 	    5.00000 	    4.00000
   0.40000 	    5.00000 	    5.00000
   0.40000 	    5.00000 	    6.00000
   0.40000 	    5.00000 	    7.00000
   0.40000 	    5.00000 	    8.00000
   0.40000 	    5.00000 	    9.00000
   0.40000 	    6.00000 	    0.00000
   0.40000 	    6.00000 	    1.00000
   0.40000 	    6.00000 	    2.00000
   0.40000 	    6.00000 	    3.00000
   0.40000 	    6.00000 	    4.00000
   0.40000 	    6.00000 	    5.00000
   0.40000 	    6.00000 	    6.00000
   0.40000 	    6.00000 	    7.00000
   0.40000 	    6.00000 	    8.00000
   0.40000 	    6.00000 	    9.00000
   0.40000 	    7.00000 	    0.00000
   0.40000 	    7.00000 	    1.00000
   0.40000 	    7.00000 	    2.00000
   0.40000 	    7.00000 	    3.00000
   0.40000 	    7.00000 	    4.00000
   0.40000 	    7.00000 	    5.00000
   0.40000 	    7.00000 	    6.00000
   0.40000 	    7.00000 	    7.00000
   0.40000 	    7.00000 	    8.00000
   0.40000 	    7.00000 	    9.00000
   0.40000 	    8.00000 	    0.00000
   0.40000 	    8.00000 	    1.00000
   0.40000 	    8.00000 	    2.00000
   0.40000 	    8.00000 	    3.00000
   0.40000 	    8.00000 	    4.00000
   0.40000 	    8.00000 	    5.00000
   0.40000 	    8.00000 	    6.00000
   0.40000 	    8.00000 	    7.00000
   0.40000 	    8.00000 	    8.00000
   0.40000 	    8.00000 	    9.00000
   0.40000 	    9.00000 	    0.00000
   0.40000 	    9.00000 	    1.00000
   0.40000 	    9.00000 	    2.00000
   0.40000 	    9.00000 	    3.00000
   0.40000 	    9.00000 	    4.00000
   0.40000 	    9.00000 	    5.00000
   0.40000 	    9.00000 	    6.00000
   0.40000 	    9.00000 	    7.00000
   0.40000 	    9.00000 	    8.00000
   0.40000 	    9.00000 	    9.00000
   1.40147 	   -0.07021 	   -0.07021
   1.39614 	   -0.07591 	    0.96038
   1.39372 	   -0.07659 	    1.97946
   1.39613 	   -0.07903 	    2.98330
   1.39465 	   -0.07890 	    3.99355
   1.39465 	   -0.07890 	    5.00645
   1.39613 	   -0.07903 	    6.01669
   1.39372 	   -0.07659 	    7.02054
   1.39614 	   -0.07591 	    8.03962
   1.40147 	   -0.07020 	    9.07021
   1.39614 	    0.96038 	   -0.07591
   1.39209 	    0.94572 	    0.94572
   1.38394 	    0.95004 	    1.97607
   1.38582 	    0.94771 	    2.97306
   1.38521 	    0.95019 	    3.98916
   1.38521 	    0.95019 	    5.01083
   1.38582 	    0.94771 	    6.02693
   1.38394 	    0.95004 	    7.02393
   1.39209 	    0.94572 	    8.05428
   1.39614 	    0.96038 	    9.07591
   1.39372 	    1.97946 	   -0.07659
   1.38394 	    1.97607 	    0.95004
   1.38314 	    1.97722 	    1.97722
   1.38291 	    1.97784 	    2.96644
   1.38463 	    1.97826 	    3.98714
   1.38463 	    1.97826 	    5.01286
   1.38291 	    1.97784 	    6.03355
   1.38314 	    1.97722 	    7.02278
   1.38394 	    1.97607 	    8.04995
   1.39372 	    1.97946 	    9.07658
   1.39613 	    2.98330 	   -0.07903
   1.38582 	    2.97306 	    0.94771
   1.38291 	    2.96644 	    1.97784
   1.38169 	    2.96619 	    2.96619
   1.38337 	    2.96552 	    3.98737
   1.38337 	    2.96552 	    5.01262
   1.38169 	    2.96619 	    6.03380
   1.38291 	    2.96644 	    7.02216
   1.38582 	    2.97306 	    8.05228
   1.39613 	    2.98330 	    9.07903
   1.39465 	    3.99355 	   -0.07890
   1.38521 	    3.98916 	    0.95019
   1.38463 	    3.98713 	    1.97826
   1.38337 	    3.98737 	    2.96552
   1.38489 	    3.98725 	    3.98725
   1.38489 	    3.98725 	    5.01274
   1.38337 	    3.98737 	    6.03448
   1.38463 	    3.98713 	    7.02174
   1.38521 	    3.98916 	    8.04980
   1.39465 	    3.99355 	    9.07889
   1.39465 	    5.00645 	   -0.07890
   1.38521 	    5.01083 	    0.95020
   1.38463 	    5.01286 	    1.97826
   1.38337 	    5.01262 	    2.96552
   1.38489 	    5.01274 	    3.98725
   1.38489 	    5.01274 	    5.01274
   1.38337 	    5.01262 	    6.03448
   1.38463 	    5.01285 	    7.02174
   1.38521 	    5.01083 	    8.04980
   1.39465 	    5.00645 	    9.07889
   1.39613 	    6.01669 	   -0.07903
   1.38582 	    6.02693 	    0.94772
   1.38291 	    6.03355 	    1.97784
   1.38169 	    6.03380 	    2.96619
   1.38337 	    6.03447 	    3.98737
   1.38337 	    6.03447 	    5.01262
   1.38169 	    6.03380 	    6.03380
   1.38291 	    6.03355 	    7.02215
   1.38582 	    6.02693 	    8.05228
   1.39613 	    6.01669 	    9.07903
   1.39372 	    7.02054 	   -0.07658
   1.38394 	    7.02392 	    0.95005
   1.38314 	    7.02278 	    1.97722
   1.38291 	    7.02215 	    2.96644
   1.38463 	    7.02174 	    3.98714
   1.38463 	    7.02174 	    5.01286
   1.38291 	    7.02215 	    6.03355
   1.38314 	    7.02278 	    7.02278
   1.38394 	    7.02392 	    8.04995
   1.39372 	    7.02054 	    9.07658
   1.39614 	    8.03962 	   -0.07591
   1.39209 	    8.05428 	    0.94572
   1.38394 	    8.04995 	    1.97607
   1.38582 	    8.05228 	    2.97307
   1.38521 	    8.04980 	    3.98916
   1.38521 	    8.04980 	    5.01083
   1.38582 	    8.05228 	    6.02693
   1.38394 	    8.04995 	    7.02392
   1.39209 	    8.05428 	    8.05428
   1.39614 	    8.03961 	    9.07591
   1.40147 	    9.07020 	   -0.07020
   1.39614 	    9.07591 	    0.96038
   1.39372 	    9.07658 	    1.97946
   1.39613 	    9.07903 	    2.98330
   1.39465 	    9.07889 	    3.99355
   1.39465 	    9.07889 	    5.00645
   1.39613 	    9.07903 	    6.01669
   1.39372 	    9.07658 	    7.02054
   1.39614 	    9.07591 	    8.03961
   1.40147 	    9.07020 	    9.07020
   2.31070 	   -0.10246 	   -0.10246
   2.32652 	   -0.10781 	    0.92311
   2.33102 	   -0.11245 	    1.94944
   2.33045 	   -0.11676 	    2.96883
   2.32882 	   -0.11906 	    3.98978
   2.32882 	   -0.11906 	    5.01021
   2.33045 	   -0.11676 	    6.03116
   2.33102 	   -0.11245 	    7.05056
   2.32652 	   -0.10781 	    8.07689
   2.31070 	   -0.10246 	    9.10246
   2.32652 	    0.92311 	   -0.10781
   2.36688 	    0.91447 	    0.91447
   2.37966 	    0.90707 	    1.95590
   2.37797 	    0.90356 	    2.97260
   2.37535 	    0.90024 	    3.99165
   2.37535 	    0.90024 	    5.00835
   2.37797 	    0.90356 	    6.02740
   2.37966 	    0.90707 	    7.04410
   2.36688 	    0.91447 	    8.08552
   2.32652 	    0.92311 	    9.10781
   2.33102 	    1.94944 	   -0.11245
   2.37966 	    1.95590 	    0.90707
   2.38182 	    1.95241 	    1.95241
   2.37720 	    1.95235 	    2.97427
   2.37071 	    1.94706 	    3.99257
   2.37071 	    1.94706 	    5.00743
   2.37720 	    1.95235 	    6.02573
   2.38182 	    1.95241 	    7.04758
   2.37967 	    1.95590 	    8.09292
   2.33102 	    1.94944 	    9.11244
   2.33045 	    2.96883 	   -0.11675
   2.37797 	    2.97260 	    0.90357
   2.37720 	    2.97427 	    1.95235
   2.37192 	    2.97331 	    2.97331
   2.36441 	    2.97196 	    3.99178
   2.36441 	    2.97196 	    5.00822
   2.37192 	    2.97331 	    6.02669
   2.37720 	    2.97427 	    7.04765
   2.37797 	    2.97260 	    8.09643
   2.33045 	    2.96883 	    9.11675
   2.32882 	    3.98978 	   -0.11906
   2.37535 	    3.99165 	    0.90024
   2.37071 	    3.99256 	    1.94706
   2.36441 	    3.99178 	    2.97196
   2.35589 	    3.99124 	    3.99124
   2.35589 	    3.99124 	    5.00875
   2.36441 	    3.99178 	    6.02803
   2.37071 	    3.99256 	    7.05293
   2.37535 	    3.99165 	    8.09975
   2.32882 	    3.98978 	    9.11906
   2.32882 	    5.01021 	   -0.11906
   2.37535 	    5.00835 	    0.90024
   2.37071 	    5.00743 	    1.94706
   2.36441 	    5.00822 	    2.97196
   2.35589 	    5.00875 	    3.99124
   2.35589 	    5.00875 	    5.00875
   2.36441 	    5.00822 	    6.02803
   2.37071 	    5.00743 	    7.05293
   2.37535 	    5.00835 	    8.09975
   2.32882 	    5.01021 	    9.11906
   2.33045 	    6.03116 	   -0.11675
   2.37797 	    6.02739 	    0.90357
   2.37720 	    6.02573 	    1.95235
   2.37192 	    6.02668 	    2.97331
   2.36441 	    6.02803 	    3.99178
   2.36441 	    6.02803 	    5.00822
   2.37192 	    6.02668 	    6.02669
   2.37720 	    6.02573 	    7.04765
[...]
POINT_DATA 1000
SCALARS C float
LOOKUP_TABLE default
	      0.8941299
	      0.5110111
	      0.5023632
	      0.5247154
	      0.5018667
	      0.5018644
	      0.5247116
	      0.5023608
	      0.5110038
	      0.8941061
	      0.5110063
	      0.1169962
	      0.1109093
	      0.1351417
	      0.1168850
	      0.1168837
	      0.1351405
	      0.1109116
	      0.1169955
	      0.5109915
	      0.5023566
	      0.1109085
	      0.1083128
	      0.1426034
	      0.1231101
	      0.1231086
	      0.1426016
	      0.1083150
	      0.1109087
	      0.5023400
	      0.5247091
	      0.1351418
	      0.1426043
	      0.1872365
	      0.1678834
	      0.1678818
	      0.1872344
	      0.1426061
	      0.1351417
	      0.5246913
	      0.5018599
	      0.1168851
	      0.1231110
	      0.1678832
	      0.1470766
	      0.1470750
	      0.1678810
	      0.1231129
	      0.1168854
	      0.5018424
	      0.5018568
	      0.1168832
	      0.1231087
	      0.1678806
	      0.1470740
	      0.1470724
	      0.1678785
	      0.1231107
	      0.1168836
	      0.5018394
	      0.5247046
	      0.1351400
	      0.1426017
	      0.1872333
	      0.1678798
	      0.1678783
	      0.1872312
	      0.1426036
	      0.1351400
	      0.5246867
	      0.5023546
	      0.1109117
	      0.1083161
	      0.1426063
	      0.1231130
	      0.1231115
	      0.1426045
	      0.1083182
	      0.1109118
	      0.5023380
	      0.5109973
	      0.1169949
	      0.1109088
	      0.1351412
	      0.1168849
	      0.1168837
	      0.1351401
	      0.1109111
	      0.1169941
	      0.5109824
	      0.8940969
	      0.5109849
	      0.5023338
	      0.5246843
	      0.5018349
	      0.5018325
	      0.5246804
	      0.5023314
	      0.5109776
	      0.8940732
	      0.0716362
	      0.0552081
	      0.0548085
	      0.0598429
	      0.0604558
	      0.0604558
	      0.0598429
	      0.0548085
	      0.0552081
	      0.0716358
	      0.0552083
	      0.0569912
	      0.0569652
	      0.0681240
	      0.0676341
	      0.0676339
	      0.0681242
	      0.0569646
	      0.0569912
	      0.0552081
	      0.0548085
	      0.0569651
	      0.0482050
	      0.0582750
	      0.0570990
	      0.0570986
	      0.0582751
	      0.0482042
	      0.0569651
	      0.0548079
	      0.0598428
	      0.0681237
	      0.0582747
	      0.0694174
	      0.0690487
	      0.0690482
	      0.0694173
	      0.0582737
	      0.0681237
	      0.0598418
	      0.0604558
	      0.0676339
	      0.0570989
	      0.0690488
	      0.0687969
	      0.0687962
	      0.0690487
	      0.0570981
	      0.0676340
	      0.0604549
	      0.0604558
	      0.0676338
	      0.0570983
	      0.0690479
	      0.0687959
	      0.0687953
	      0.0690478
	      0.0570974
	      0.0676339
	      0.0604550
	      0.0598428
	      0.0681239
	      0.0582748
	      0.0694172
	      0.0690485
	      0.0690479
	      0.0694171
	      0.0582738
	      0.0681239
	      0.0598418
	      0.0548083
	      0.0569641
	      0.0482038
	      0.0582735
	      0.0570978
	      0.0570973
	      0.0582736
	      0.0482029
	      0.0569642
	      0.0548077
	      0.0552080
	      0.0569913
	      0.0569647
	      0.0681234
	      0.0676339
	      0.0676337
	      0.0681236
	      0.0569641
	      0.0569913
	      0.0552078
	      0.0716360
	      0.0552080
	      0.0548077
	      0.0598417
	      0.0604549
	      0.0604549
	      0.0598417
	      0.0548077
	      0.0552079
	      0.0716356
	      0.1646748
	      0.1207585
	      0.1097505
	      0.1090172
	      0.1085911
	      0.1085910
	      0.1090168
	      0.1097498
	      0.1207571
	      0.1646724
	      0.1207585
	      0.0940439
	      0.0875561
	      0.0873460
	      0.0870883
	      0.0870882
	      0.0873457
	      0.0875554
	      0.0940432
	      0.1207575
	      0.1097504
	      0.0875559
	      0.0860984
	      0.0837487
	      0.0849986
	      0.0849984
	      0.0837489
	      0.0860971
	      0.0875549
	      0.1097491
	      0.1090169
	      0.0873455
	      0.0837481
	      0.0789537
	      0.0803611
	      0.0803607
	      0.0789546
	      0.0837474
	      0.0873441
	      0.1090153
	      0.1085907
	      0.0870878
	      0.0849982
	      0.0803613
	      0.0830510
	      0.0830508
	      0.0803621
	      0.0849972
	      0.0870860
	      0.1085891
	      0.1085905
	      0.0870875
	      0.0849979
	      0.0803608
	      0.0830506
	      0.0830504
	      0.0803616
	      0.0849970
	      0.0870857
	      0.1085890
	      0.1090163
	      0.0873450
	      0.0837486
	      0.0789549
	      0.0803622
	      0.0803618
	      0.0789558
	      0.0837479
	      0.0873436
	      0.1090147
	      0.1097491
	      0.0875548
	      0.0860962
	      0.0837471
	      0.0849967
	      0.0849966
	      0.0837473
	      0.0860949
	      0.0875537
	      0.1097479
	      0.1207565
	      0.0940431
	      0.0875542
	      0.0873435
	      0.0870853
	      0.0870852
	      0.0873431
	      0.0875535
	      0.0940424
	      0.1207554
	      0.1646719
	      0.1207568
	      0.1097485
	      0.1090148
	      0.1085887
	      0.1085886
	      0.1090144
	      0.1097477
	      0.1207555
	      0.1646695
	      0.1572306
	      0.1239335
	      0.1176780
	      0.1173019
	      0.1174000
	      0.1173999
	      0.1173015
	      0.1176772
	      0.1239324
	      0.1572290
	      0.1239338
	      0.0995814
	      0.0958852
	      0.0945201
	      0.0942261
	      0.0942258
	      0.0945197
	      0.0958845
	      0.0995815
	      0.1239329
	      0.1176781
	      0.0958855
	      0.1143903
	      0.1137231
	      0.1195752
	      0.1195751
	      0.1137230
	      0.1143893
	      0.0958864
	      0.1176766
	      0.1173019
	      0.0945203
	      0.1137226
	      0.1066500
	      0.1118674
	      0.1118670
	      0.1066497
	      0.1137218
	      0.0945211
	      0.1173001
	      0.1173998
	      0.0942263
	      0.1195748
	      0.1118673
	      0.1193577
	      0.1193576
	      0.1118669
	      0.1195736
	      0.0942268
	      0.1173979
	      0.1173995
	      0.0942259
	      0.1195745
	      0.1118667
	      0.1193573
	      0.1193572
	      0.1118663
	      0.1195734
	      0.0942264
	      0.1173977
	      0.1173011
	      0.0945196
	      0.1137225
	      0.1066494
	      0.1118666
	      0.1118661
	      0.1066491
	      0.1137217
	      0.0945204
	      0.1172993
	      0.1176766
	      0.0958843
	      0.1143887
	      0.1137213
	      0.1195731
	      0.1195729
	      0.1137212
	      0.1143877
	      0.0958853
	      0.1176751
	      0.1239318
	      0.0995817
	      0.0958862
	      0.0945211
	      0.0942268
	      0.0942266
	      0.0945207
	      0.0958856
	      0.0995818
	      0.1239309
	      0.1572288
	      0.1239323
	      0.1176760
	      0.1172996
	      0.1173976
	      0.1173974
	      0.1172992
	      0.1176752
	      0.1239312
	      0.1572272
	      0.1288451
	      0.1077722
	      0.1060132
	      0.1077854
	      0.1081704
	      0.1081702
	      0.1077850
	      0.1060127
	      0.1077717
	      0.1288448
	      0.1077726
	      0.0866441
	      0.0872586
	      0.0882036
	      0.0880046
	      0.0880043
	      0.0882031
	      0.0872582
	      0.0866446
	      0.1077733
	      0.1060138
	      0.0872590
	      0.0936195
	      0.0953331
	      0.1033220
	      0.1033233
	      0.0953332
	      0.0936176
	      0.0872595
	      0.1060139
	      0.1077859
	      0.0882041
	      0.0953324
	      0.0912435
	      0.0992088
	      0.0992103
	      0.0912436
	      0.0953301
	      0.0882051
	      0.1077859
	      0.1081707
	      0.0880050
	      0.1033211
	      0.0992086
	      0.1099562
	      0.1099579
	      0.0992084
	      0.1033186
	      0.0880059
	      0.1081707
	      0.1081704
	      0.0880046
	      0.1033227
	      0.0992105
	      0.1099585
	      0.1099603
	      0.0992103
	      0.1033201
	      0.0880055
	      0.1081703
	      0.1077850
	      0.0882033
	      0.0953325
	      0.0912433
	      0.0992086
	      0.0992101
	      0.0912434
	      0.0953301
	      0.0882043
	      0.1077850
	      0.1060126
	      0.0872582
	      0.0936167
	      0.0953293
	      0.1033179
	      0.1033192
	      0.0953294
	      0.0936147
	      0.0872587
	      0.1060128
	      0.1077716
	      0.0866448
	      0.0872595
	      0.0882053
	      0.0880061
	      0.0880058
	      0.0882047
	      0.0872591
	      0.0866453
	      0.1077722
	      0.1288454
	      0.1077731
	      0.1060138
	      0.1077859
	      0.1081708
	      0.1081707
	      0.1077855
	      0.1060134
	      0.1077726
	      0.1288451
	      0.1288068
	      0.1076684
	      0.1058754
	      0.1075937
	      0.1079439
	      0.1079438
	      0.1075934
	      0.1058750
	      0.1076680
	      0.1288064
	      0.1076688
	      0.0861264
	      0.0876221
	      0.0885715
	      0.0887125
	      0.0887122
	      0.0885710
	      0.0876218
	      0.0861268
	      0.1076696
	      0.1058760
	      0.0876223
	      0.0956020
	      0.0969850
	      0.1025589
	      0.1025593
	      0.0969851
	      0.0956009
	      0.0876227
	      0.1058762
	      0.1075943
	      0.0885719
	      0.0969844
	      0.0921481
	      0.0966646
	      0.0966648
	      0.0921480
	      0.0969833
	      0.0885724
	      0.1075944
	      0.1079443
	      0.0887128
	      0.1025583
	      0.0966645
	      0.1035961
	      0.1035965
	      0.0966641
	      0.1025571
	      0.0887129
	      0.1079445
	      0.1079440
	      0.0887124
	      0.1025588
	      0.0966648
	      0.1035966
	      0.1035970
	      0.0966644
	      0.1025576
	      0.0887125
	      0.1079442
	      0.1075935
	      0.0885711
	      0.0969846
	      0.0921479
	      0.0966641
	      0.0966643
	      0.0921478
	      0.0969835
	      0.0885716
	      0.1075936
	      0.1058749
	      0.0876218
	      0.0956002
	      0.0969828
	      0.1025566
	      0.1025570
	      0.0969829
	      0.0955992
	      0.0876221
	      0.1058752
	      0.1076678
	      0.0861270
	      0.0876226
	      0.0885725
	      0.0887131
	      0.0887128
	      0.0885720
	      0.0876224
	      0.0861274
	      0.1076686
	      0.1288071
	      0.1076694
	      0.1058761
	      0.1075945
	      0.1079447
	      0.1079446
	      0.1075942
	      0.1058758
	      0.1076690
	      0.1288067
	      0.1573733
	      0.1240821
	      0.1179074
	      0.1175908
	      0.1176933
	      0.1176932
	      0.1175904
	      0.1179068
	      0.1240811
	      0.1573717
	      0.1240823
	      0.0997646
	      0.0957129
	      0.0941239
	      0.0941684
	      0.0941682
	      0.0941234
	      0.0957123
	      0.0997644
	      0.1240817
	      0.1179076
	      0.0957131
	      0.1132071
	      0.1133010
	      0.1180592
	      0.1180588
	      0.1133007
	      0.1132065
	      0.0957128
	      0.1179063
	      0.1175908
	      0.0941239
	      0.1133008
	      0.1076126
	      0.1113269
	      0.1113258
	      0.1076118
	      0.1133007
	      0.0941233
	      0.1175891
	      0.1176932
	      0.0941683
	      0.1180588
	      0.1113266
	      0.1173268
	      0.1173261
	      0.1113257
	      0.1180586
	      0.0941671
	      0.1176915
	      0.1176929
	      0.0941679
	      0.1180583
	      0.1113254
	      0.1173256
	      0.1173248
	      0.1113245
	      0.1180581
	      0.0941667
	      0.1176912
	      0.1175900
	      0.0941231
	      0.1133002
	      0.1076114
	      0.1113253
	      0.1113243
	      0.1076106
	      0.1133001
	      0.0941224
	      0.1175883
	      0.1179062
	      0.0957119
	      0.1132059
	      0.1133002
	      0.1180582
	      0.1180578
	      0.1132999
	      0.1132054
	      0.0957116
	      0.1179048
	      0.1240805
	      0.0997643
	      0.0957123
	      0.0941230
	      0.0941668
	      0.0941666
	      0.0941225
	      0.0957117
	      0.0997641
	      0.1240799
	      0.1573716
	      0.1240811
	      0.1179057
	      0.1175887
	      0.1176911
	      0.1176910
	      0.1175883
	      0.1179050
	      0.1240801
	      0.1573700
	      0.1652658
	      0.1213134
	      0.1104579
	      0.1098775
	      0.1094951
	      0.1094950
	      0.1098771
	      0.1104571
	      0.1213121
	      0.1652633
	      0.1213134
	      0.0950434
	      0.0879820
	      0.0877727
	      0.0874846
	      0.0874844
	      0.0877722
	      0.0879814
	      0.0950431
	      0.1213119
	      0.1104577
	      0.0879820
	      0.0840758
	      0.0830455
	      0.0857444
	      0.0857450
	      0.0830458
	      0.0840752
	      0.0879821
	      0.1104557
	      0.1098771
	      0.0877723
	      0.0830451
	      0.0808136
	      0.0843351
	      0.0843356
	      0.0808143
	      0.0830449
	      0.0877723
	      0.1098749
	      0.1094946
	      0.0874842
	      0.0857441
	      0.0843352
	      0.0895764
	      0.0895770
	      0.0843360
	      0.0857440
	      0.0874840
	      0.1094923
	      0.1094944
	      0.0874840
	      0.0857449
	      0.0843359
	      0.0895772
	      0.0895779
	      0.0843367
	      0.0857448
	      0.0874838
	      0.1094921
	      0.1098764
	      0.0877718
	      0.0830456
	      0.0808146
	      0.0843363
	      0.0843368
	      0.0808153
	      0.0830454
	      0.0877718
	      0.1098742
	      0.1104564
	      0.0879810
	      0.0840749
	      0.0830447
	      0.0857439
	      0.0857445
	      0.0830450
	      0.0840743
	      0.0879811
	      0.1104544
	      0.1213113
	      0.0950432
	      0.0879817
	      0.0877720
	      0.0874836
	      0.0874834
	      0.0877714
	      0.0879811
	      0.0950428
	      0.1213098
	      0.1652625
	      0.1213111
	      0.1104550
	      0.1098742
	      0.1094917
	      0.1094916
	      0.1098738
	      0.1104542
	      0.1213098
	      0.1652600
	      0.0724878
	      0.0557600
	      0.0553726
	      0.0604721
	      0.0610633
	      0.0610633
	      0.0604719
	      0.0553725
	      0.0557600
	      0.0724874
	      0.0557602
	      0.0570663
	      0.0569106
	      0.0681308
	      0.0675328
	      0.0675326
	      0.0681303
	      0.0569103
	      0.0570662
	      0.0557601
	      0.0553726
	      0.0569104
	      0.0495081
	      0.0585546
	      0.0565362
	      0.0565354
	      0.0585535
	      0.0495078
	      0.0569102
	      0.0553724
	      0.0604720
	      0.0681305
	      0.0585547
	      0.0669396
	      0.0646989
	      0.0646979
	      0.0669382
	      0.0585541
	      0.0681301
	      0.0604714
	      0.0610632
	      0.0675326
	      0.0565361
	      0.0646988
	      0.0621047
	      0.0621037
	      0.0646972
	      0.0565355
	      0.0675323
	      0.0610627
	      0.0610633
	      0.0675322
	      0.0565350
	      0.0646973
	      0.0621032
	      0.0621022
	      0.0646957
	      0.0565344
	      0.0675319
	      0.0610627
	      0.0604719
	      0.0681298
	      0.0585531
	      0.0669375
	      0.0646965
	      0.0646956
	      0.0669360
	      0.0585525
	      0.0681294
	      0.0604712
	      0.0553724
	      0.0569099
	      0.0495075
	      0.0585537
	      0.0565352
	      0.0565344
	      0.0585525
	      0.0495072
	      0.0569097
	      0.0553721
	      0.0557601
	      0.0570662
	      0.0569098
	      0.0681296
	      0.0675319
	      0.0675317
	      0.0681291
	      0.0569095
	      0.0570660
	      0.0557600
	      0.0724877
	      0.0557602
	      0.0553723
	      0.0604713
	      0.0610627
	      0.0610627
	      0.0604712
	      0.0553722
	      0.0557602
	      0.0724873
	      0.8943251
	      0.5101480
	      0.5001011
	      0.5232849
	      0.5006791
	      0.5006771
	      0.5232812
	      0.5000978
	      0.5101406
	      0.8943013
	      0.5101433
	      0.1198392
	      0.1125193
	      0.1370032
	      0.1185861
	      0.1185856
	      0.1370029
	      0.1125207
	      0.1198390
	      0.5101283
	      0.5000947
	      0.1125186
	      0.1086455
	      0.1430379
	      0.1231482
	      0.1231473
	      0.1430368
	      0.1086468
	      0.1125190
	      0.5000781
	      0.5232786
	      0.1370031
	      0.1430385
	      0.1877449
	      0.1677218
	      0.1677208
	      0.1877435
	      0.1430395
	      0.1370031
	      0.5232607
	      0.5006722
	      0.1185861
	      0.1231488
	      0.1677216
	      0.1457824
	      0.1457816
	      0.1677203
	      0.1231500
	      0.1185865
	      0.5006547
	      0.5006696
	      0.1185852
	      0.1231474
	      0.1677199
	      0.1457808
	      0.1457800
	      0.1677187
	      0.1231486
	      0.1185856
	      0.5006521
	      0.5232742
	      0.1370025
	      0.1430369
	      0.1877426
	      0.1677195
	      0.1677185
	      0.1877413
	      0.1430379
	      0.1370025
	      0.5232564
	      0.5000916
	      0.1125207
	      0.1086475
	      0.1430396
	      0.1231501
	      0.1231492
	      0.1430386
	      0.1086487
	      0.1125210
	      0.5000750
	      0.5101341
	      0.1198387
	      0.1125190
	      0.1370027
	      0.1185861
	      0.1185856
	      0.1370024
	      0.1125204
	      0.1198385
	      0.5101192
	      0.8942916
	      0.5101218
	      0.5000718
	      0.5232537
	      0.5006472
	      0.5006452
	      0.5232501
	      0.5000686
	      0.5101144
	      0.8942677
