# vtk DataFile Version 3.0
test_file
ASCII
DATASET POLYDATA
POINTS 1000 float
   0.50000 	   -0.00000 	    0.00000
   0.50000 	   -0.00000 	    1.00000
   0.50000 	    0.00000 	    2.00000
   0.50000 	    0.00000 	    3.00000
   0.50000 	    0.00000 	    4.00000
   0.50000 	    0.00000 	    5.00000
   0.50000 	    0.00000 	    6.00000
   0.50000 	    0.00000 	    7.00000
   0.50000 	   -0.00000 	    8.00000
   0.50000 	    0.00000 	    9.00000
   0.50000 	    1.00000 	    0.00000
   0.50000 	    1.00000 	    1.00000
   0.50000 	    1.00000 	    2.00000
   0.50000 	    1.00000 	    3.00000
   0.50000 	    1.00000 	    4.00000
   0.50000 	    1.00000 	    5.00000
   0.50000 	    1.00000 	    6.00000
   0.50000 	    1.00000 	    7.00000
   0.50000 	    1.00000 	    8.00000
   0.50000 	    1.00000 	    9.00000
   0.50000 	    2.00000 	    0.00000
   0.50000 	    2.00000 	    1.00000
   0.50000 	    2.00000 	    2.00000
   0.50000 	    2.00000 	    3.00000
   0.50000 	    2.00000 	    4.00000
   0.50000 	    2.00000 	    5.00000
   0.50000 	    2.00000 	    6.00000
   0.50000 	    2.00000 	    7.00000
   0.50000 	    2.00000 	    8.00000
   0.50000 	    2.00000 	    9.00000
   0.50000 	    3.00000 	    0.00000
   0.50000 	    3.00000 	    1.00000
   0.50000 	    3.00000 	    2.00000
   0.50000 	    3.00000 	    3.00000
   0.50000 	    3.00000 	    4.00000
   0.50000 	    3.00000 	    5.00000
   0.50000 	    3.00000 	    6.00000
   0.50000 	    3.00000 	    7.00000
   0.50000 	    3.00000 	    8.00000
   0.50000 	    3.00000 	    9.00000
   0.50000 	    4.00000 	    0.00000
   0.50000 	    4.00000 	    1.00000
   0.50000 	    4.00000 	    2.00000
   0.50000 	    4.00000 	    3.00000
   0.50000 	    4.00000 	    4.00000
   0.50000 	    4.00000 	    5.00000
   0.50000 	    4.00000 	    6.00000
   0.50000 	    4.00000 	    7.00000
   0.50000 	    4.00000 	    8.00000
   0.50000 	    4.00000 	    9.00000
   0.50000 	    5.00000 	    0.00000
   0.50000 	    5.00000 	    1.00000
   0.50000 	    5.00000 	    2.00000
   0.50000 	    5.00000 	    3.00000
   0.50000 	    5.00000 	    4.00000
   0.50000 	    5.00000 	    5.00000
   0.50000 	    5.00000 	    6.00000
   0.50000 	    5.00000 	    7.00000
   0.50000 	    5.00000 	    8.00000
   0.50000 	    5.00000 	    9.00000
   0.50000 	    6.00000 	    0.00000
   0.50000 	    6.00000 	    1.00000
   0.50000 	    6.00000 	    2.00000
   0.50000 	    6.00000 	    3.00000
   0.50000 	    6.00000 	    4.00000
   0.50000 	    6.00000 	    5.00000
   0.50000 	    6.00000 	    6.00000
   0.50000 	    6.00000 	    7.00000
   0.50000 	    6.00000 	    8.00000
   0.50000 	    6.00000 	    9.00000
   0.50000 	    7.00000 	    0.00000
   0.50000 	    7.00000 	    1.00000
   0.50000 	    7.00000 	    2.00000
   0.50000 	    7.00000 	    3.00000
   0.50000 	    7.00000 	    4.00000
   0.50000 	    7.00000 	    5.00000
   0.50000 	    7.00000 	    6.00000
   0.50000 	    7.00000 	    7.00000
   0.50000 	    7.00000 	    8.00000
   0.50000 	    7.00000 	    9.00000
   0.50000 	    8.00000 	    0.00000
   0.50000 	    8.00000 	    1.00000
   0.50000 	    8.00000 	    2.00000
   0.50000 	    8.00000 	    3.00000
   0.50000 	    8.00000 	    4.00000
   0.50000 	    8.00000 	    5.00000
   0.50000 	    8.00000 	    6.00000
   0.50000 	    8.00000 	    7.00000
   0.50000 	    8.00000 	    8.00000
   0.50000 	    8.00000 	    9.00000
   0.50000 	    9.00000 	    0.00000
   0.50000 	    9.00000 	    1.00000
   0.50000 	    9.00000 	    2.00000
   0.50000 	    9.00000 	    3.00000
   0.50000 	    9.00000 	    4.00000
   0.50000 	    9.00000 	    5.00000
   0.50000 	    9.00000 	    6.00000
   0.50000 	    9.00000 	    7.00000
   0.50000 	    9.00000 	    8.00000
   0.50000 	    9.00000 	    9.00000
   1.50496 	   -0.08874 	   -0.08874
   1.49787 	   -0.09594 	    0.95076
   1.49532 	   -0.09652 	    1.97414
   1.49870 	   -0.09953 	    2.97905
   1.49659 	   -0.09931 	    3.99198
   1.49659 	   -0.09931 	    5.00802
   1.49870 	   -0.09953 	    6.02094
   1.49532 	   -0.09652 	    7.02586
   1.49787 	   -0.09594 	    8.04924
   1.50496 	   -0.08874 	    9.08874
   1.49787 	    0.95076 	   -0.09594
   1.48915 	    0.93270 	    0.93270
   1.47975 	    0.93866 	    1.96834
   1.48226 	    0.93561 	    2.96678
   1.48116 	    0.93870 	    3.98680
   1.48116 	    0.93870 	    5.01320
   1.48226 	    0.93561 	    6.03322
   1.47975 	    0.93866 	    7.03165
   1.48915 	    0.93270 	    8.06729
   1.49787 	    0.95076 	    9.09594
   1.49532 	    1.97414 	   -0.09652
   1.47975 	    1.96834 	    0.93866
   1.48022 	    1.96997 	    1.96997
   1.48009 	    1.97053 	    2.95970
   1.48172 	    1.97124 	    3.98427
   1.48172 	    1.97124 	    5.01573
   1.48009 	    1.97053 	    6.04029
   1.48022 	    1.96997 	    7.03002
   1.47975 	    1.96834 	    8.06133
   1.49533 	    1.97414 	    9.09652
   1.49870 	    2.97905 	   -0.09953
   1.48226 	    2.96677 	    0.93561
   1.48009 	    2.95970 	    1.97053
   1.47861 	    2.95903 	    2.95904
   1.48010 	    2.95818 	    3.98423
   1.48010 	    2.95818 	    5.01576
   1.47861 	    2.95903 	    6.04096
   1.48009 	    2.95970 	    7.02947
   1.48226 	    2.96677 	    8.06439
   1.49871 	    2.97906 	    9.09953
   1.49659 	    3.99198 	   -0.09931
   1.48116 	    3.98679 	    0.93870
   1.48172 	    3.98427 	    1.97125
   1.48010 	    3.98423 	    2.95818
   1.48144 	    3.98397 	    3.98397
   1.48144 	    3.98397 	    5.01602
   1.48010 	    3.98423 	    6.04181
   1.48172 	    3.98427 	    7.02875
   1.48116 	    3.98679 	    8.06130
   1.49659 	    3.99198 	    9.09930
   1.49659 	    5.00802 	   -0.09931
   1.48116 	    5.01320 	    0.93870
   1.48172 	    5.01572 	    1.97125
   1.48010 	    5.01576 	    2.95818
   1.48144 	    5.01602 	    3.98397
   1.48144 	    5.01602 	    5.01602
   1.48010 	    5.01576 	    6.04181
   1.48172 	    5.01572 	    7.02875
   1.48116 	    5.01320 	    8.06130
   1.49659 	    5.00802 	    9.09930
   1.49870 	    6.02094 	   -0.09953
   1.48226 	    6.03322 	    0.93561
   1.48009 	    6.04029 	    1.97053
   1.47861 	    6.04096 	    2.95904
   1.48010 	    6.04181 	    3.98423
   1.48010 	    6.04181 	    5.01576
   1.47861 	    6.04096 	    6.04096
   1.48009 	    6.04029 	    7.02947
   1.48226 	    6.03322 	    8.06439
   1.49870 	    6.02094 	    9.09952
   1.49532 	    7.02586 	   -0.09652
   1.47975 	    7.03165 	    0.93866
   1.48022 	    7.03002 	    1.96997
   1.48009 	    7.02947 	    2.95971
   1.48172 	    7.02875 	    3.98427
   1.48172 	    7.02875 	    5.01573
   1.48009 	    7.02947 	    6.04029
   1.48022 	    7.03002 	    7.03002
   1.47975 	    7.03165 	    8.06133
   1.49532 	    7.02586 	    9.09651
   1.49787 	    8.04924 	   -0.09594
   1.48915 	    8.06729 	    0.93271
   1.47975 	    8.06133 	    1.96834
   1.48226 	    8.06439 	    2.96678
   1.48116 	    8.06130 	    3.98680
   1.48116 	    8.06129 	    5.01320
   1.48226 	    8.06439 	    6.03322
   1.47975 	    8.06133 	    7.03165
   1.48915 	    8.06729 	    8.06729
   1.49787 	    8.04924 	    9.09594
   1.50496 	    9.08874 	   -0.08874
   1.49787 	    9.09594 	    0.95076
   1.49533 	    9.09651 	    1.97414
   1.49871 	    9.09952 	    2.97906
   1.49659 	    9.09930 	    3.99198
   1.49659 	    9.09930 	    5.00802
   1.49870 	    9.09952 	    6.02094
   1.49533 	    9.09651 	    7.02586
   1.49787 	    9.09594 	    8.04924
   1.50496 	    9.08874 	    9.08874
   2.38882 	   -0.12975 	   -0.12975
   2.40876 	   -0.13643 	    0.90316
   2.41466 	   -0.14183 	    1.93625
   2.41423 	   -0.14704 	    2.96071
   2.41216 	   -0.14993 	    3.98712
   2.41216 	   -0.14993 	    5.01288
   2.41423 	   -0.14704 	    6.03929
   2.41466 	   -0.14182 	    7.06375
   2.40877 	   -0.13642 	    8.09683
   2.38882 	   -0.12975 	    9.12975
   2.40877 	    0.90316 	   -0.13642
   2.45766 	    0.89210 	    0.89210
   2.47253 	    0.88425 	    1.94292
   2.47184 	    0.87989 	    2.96540
   2.46851 	    0.87551 	    3.98931
   2.46851 	    0.87551 	    5.01068
   2.47184 	    0.87989 	    6.03459
   2.47253 	    0.88425 	    7.05707
   2.45766 	    0.89210 	    8.10789
   2.40877 	    0.90316 	    9.13642
   2.41467 	    1.93625 	   -0.14182
   2.47253 	    1.94292 	    0.88425
   2.47565 	    1.94146 	    1.94146
   2.47137 	    1.94002 	    2.96550
   2.46397 	    1.93454 	    3.99007
   2.46397 	    1.93454 	    5.00993
   2.47137 	    1.94002 	    6.03450
   2.47565 	    1.94146 	    7.05854
   2.47254 	    1.94292 	    8.11574
   2.41467 	    1.93625 	    9.14182
   2.41423 	    2.96071 	   -0.14704
   2.47184 	    2.96540 	    0.87990
   2.47137 	    2.96550 	    1.94002
   2.46574 	    2.96516 	    2.96516
   2.45802 	    2.96299 	    3.98988
   2.45802 	    2.96299 	    5.01012
   2.46574 	    2.96516 	    6.03483
   2.47137 	    2.96550 	    7.05997
   2.47184 	    2.96540 	    8.12010
   2.41423 	    2.96071 	    9.14703
   2.41216 	    3.98712 	   -0.14993
   2.46851 	    3.98931 	    0.87551
   2.46397 	    3.99007 	    1.93455
   2.45802 	    3.98988 	    2.96299
   2.44920 	    3.98918 	    3.98918
   2.44920 	    3.98918 	    5.01082
   2.45802 	    3.98988 	    6.03700
   2.46397 	    3.99007 	    7.06545
   2.46851 	    3.98931 	    8.12448
   2.41216 	    3.98712 	    9.14992
   2.41216 	    5.01287 	   -0.14993
   2.46851 	    5.01068 	    0.87551
   2.46397 	    5.00993 	    1.93454
   2.45802 	    5.01012 	    2.96299
   2.44920 	    5.01082 	    3.98918
   2.44920 	    5.01082 	    5.01082
   2.45802 	    5.01012 	    6.03700
   2.46397 	    5.00993 	    7.06545
   2.46851 	    5.01068 	    8.12448
   2.41216 	    5.01287 	    9.14992
   2.41423 	    6.03928 	   -0.14703
   2.47184 	    6.03459 	    0.87990
   2.47137 	    6.03450 	    1.94002
   2.46574 	    6.03483 	    2.96516
   2.45802 	    6.03700 	    3.98988
   2.45802 	    6.03700 	    5.01012
   2.46574 	    6.03483 	    6.03483
   2.47137 	    6.03450 	    7.05998
[...]
POINT_DATA 1000
SCALARS C float
LOOKUP_TABLE default
	      0.9764182
	      0.5577232
	      0.5532815
	      0.5764849
	      0.5492400
	      0.5492374
	      0.5764807
	      0.5532793
	      0.5577157
	      0.9763936
	      0.5577180
	      0.1163006
	      0.1140345
	      0.1416356
	      0.1202111
	      0.1202095
	      0.1416341
	      0.1140374
	      0.1163001
	      0.5577026
	      0.5532745
	      0.1140338
	      0.1148891
	      0.1546602
	      0.1315093
	      0.1315074
	      0.1546580
	      0.1148921
	      0.1140343
	      0.5532566
	      0.5764783
	      0.1416359
	      0.1546614
	      0.2061509
	      0.1820008
	      0.1819986
	      0.2061482
	      0.1546641
	      0.1416362
	      0.5764591
	      0.5492328
	      0.1202113
	      0.1315105
	      0.1820007
	      0.1546789
	      0.1546765
	      0.1819978
	      0.1315132
	      0.1202121
	      0.5492142
	      0.5492295
	      0.1202090
	      0.1315075
	      0.1819972
	      0.1546752
	      0.1546729
	      0.1819943
	      0.1315103
	      0.1202098
	      0.5492108
	      0.5764733
	      0.1416336
	      0.1546582
	      0.2061468
	      0.1819964
	      0.1819942
	      0.2061442
	      0.1546609
	      0.1416339
	      0.5764541
	      0.5532728
	      0.1140377
	      0.1148935
	      0.1546643
	      0.1315134
	      0.1315114
	      0.1546621
	      0.1148965
	      0.1140382
	      0.5532549
	      0.5577089
	      0.1162996
	      0.1140346
	      0.1416357
	      0.1202116
	      0.1202100
	      0.1416341
	      0.1140376
	      0.1162990
	      0.5576934
	      0.9763844
	      0.5576957
	      0.5532501
	      0.5764517
	      0.5492063
	      0.5492036
	      0.5764475
	      0.5532479
	      0.5576883
	      0.9763599
	      0.0771676
	      0.0595181
	      0.0592327
	      0.0646678
	      0.0653503
	      0.0653503
	      0.0646678
	      0.0592327
	      0.0595179
	      0.0771672
	      0.0595183
	      0.0624395
	      0.0626047
	      0.0741515
	      0.0733544
	      0.0733542
	      0.0741515
	      0.0626040
	      0.0624394
	      0.0595180
	      0.0592327
	      0.0626045
	      0.0522393
	      0.0629546
	      0.0603289
	      0.0603285
	      0.0629548
	      0.0522385
	      0.0626044
	      0.0592320
	      0.0646677
	      0.0741511
	      0.0629543
	      0.0742027
	      0.0712927
	      0.0712921
	      0.0742027
	      0.0629534
	      0.0741509
	      0.0646666
	      0.0653502
	      0.0733542
	      0.0603288
	      0.0712927
	      0.0678452
	      0.0678445
	      0.0712927
	      0.0603280
	      0.0733540
	      0.0653492
	      0.0653502
	      0.0733540
	      0.0603282
	      0.0712920
	      0.0678443
	      0.0678436
	      0.0712920
	      0.0603275
	      0.0733538
	      0.0653492
	      0.0646676
	      0.0741512
	      0.0629545
	      0.0742026
	      0.0712926
	      0.0712921
	      0.0742026
	      0.0629536
	      0.0741510
	      0.0646665
	      0.0592325
	      0.0626035
	      0.0522380
	      0.0629532
	      0.0603278
	      0.0603274
	      0.0629534
	      0.0522371
	      0.0626034
	      0.0592318
	      0.0595178
	      0.0624394
	      0.0626039
	      0.0741505
	      0.0733538
	      0.0733536
	      0.0741506
	      0.0626032
	      0.0624392
	      0.0595175
	      0.0771674
	      0.0595179
	      0.0592318
	      0.0646664
	      0.0653491
	      0.0653491
	      0.0646664
	      0.0592318
	      0.0595177
	      0.0771670
	      0.1773372
	      0.1301307
	      0.1183526
	      0.1175507
	      0.1171118
	      0.1171117
	      0.1175503
	      0.1183519
	      0.1301293
	      0.1773348
	      0.1301308
	      0.1025528
	      0.0966623
	      0.0971169
	      0.0966678
	      0.0966677
	      0.0971166
	      0.0966616
	      0.1025518
	      0.1301299
	      0.1183526
	      0.0966621
	      0.0948933
	      0.0912387
	      0.0954792
	      0.0954788
	      0.0912392
	      0.0948920
	      0.0966613
	      0.1183514
	      0.1175504
	      0.0971163
	      0.0912381
	      0.0856070
	      0.0917870
	      0.0917871
	      0.0856083
	      0.0912365
	      0.0971151
	      0.1175490
	      0.1171114
	      0.0966673
	      0.0954788
	      0.0917874
	      0.0995329
	      0.0995331
	      0.0917883
	      0.0954773
	      0.0966662
	      0.1171100
	      0.1171113
	      0.0966672
	      0.0954782
	      0.0917871
	      0.0995329
	      0.0995330
	      0.0917880
	      0.0954766
	      0.0966662
	      0.1171099
	      0.1175498
	      0.0971161
	      0.0912390
	      0.0856086
	      0.0917883
	      0.0917883
	      0.0856099
	      0.0912375
	      0.0971149
	      0.1175484
	      0.1183513
	      0.0966609
	      0.0948911
	      0.0912363
	      0.0954766
	      0.0954762
	      0.0912368
	      0.0948898
	      0.0966601
	      0.1183501
	      0.1301287
	      0.1025519
	      0.0966606
	      0.0971145
	      0.0966657
	      0.0966657
	      0.0971143
	      0.0966599
	      0.1025509
	      0.1301278
	      0.1773343
	      0.1301293
	      0.1183508
	      0.1175485
	      0.1171096
	      0.1171095
	      0.1175482
	      0.1183501
	      0.1301279
	      0.1773320
	      0.1689482
	      0.1332527
	      0.1264597
	      0.1260671
	      0.1262184
	      0.1262183
	      0.1260667
	      0.1264589
	      0.1332516
	      0.1689466
	      0.1332530
	      0.1073329
	      0.1032919
	      0.1015846
	      0.1011138
	      0.1011137
	      0.1015844
	      0.1032913
	      0.1073331
	      0.1332522
	      0.1264598
	      0.1032922
	      0.1237034
	      0.1200371
	      0.1292050
	      0.1292048
	      0.1200373
	      0.1237015
	      0.1032928
	      0.1264585
	      0.1260670
	      0.1015848
	      0.1200363
	      0.1074720
	      0.1167853
	      0.1167854
	      0.1074725
	      0.1200346
	      0.1015850
	      0.1260654
	      0.1262182
	      0.1011139
	      0.1292044
	      0.1167854
	      0.1281275
	      0.1281274
	      0.1167854
	      0.1292025
	      0.1011141
	      0.1262165
	      0.1262180
	      0.1011137
	      0.1292041
	      0.1167852
	      0.1281272
	      0.1281271
	      0.1167852
	      0.1292022
	      0.1011139
	      0.1262162
	      0.1260663
	      0.1015843
	      0.1200368
	      0.1074724
	      0.1167853
	      0.1167853
	      0.1074730
	      0.1200351
	      0.1015846
	      0.1260647
	      0.1264584
	      0.1032911
	      0.1237004
	      0.1200341
	      0.1292017
	      0.1292016
	      0.1200343
	      0.1236985
	      0.1032917
	      0.1264570
	      0.1332509
	      0.1073332
	      0.1032926
	      0.1015850
	      0.1011141
	      0.1011140
	      0.1015848
	      0.1032921
	      0.1073334
	      0.1332501
	      0.1689463
	      0.1332515
	      0.1264579
	      0.1260650
	      0.1262162
	      0.1262161
	      0.1260646
	      0.1264572
	      0.1332504
	      0.1689447
	      0.1378625
	      0.1159997
	      0.1142247
	      0.1162229
	      0.1166327
	      0.1166325
	      0.1162225
	      0.1142243
	      0.1159992
	      0.1378622
	      0.1160002
	      0.0929047
	      0.0933674
	      0.0938360
	      0.0928849
	      0.0928843
	      0.0938354
	      0.0933674
	      0.0929053
	      0.1160008
	      0.1142253
	      0.0933678
	      0.1064734
	      0.1081296
	      0.1162632
	      0.1162640
	      0.1081290
	      0.1064715
	      0.0933689
	      0.1142254
	      0.1162234
	      0.0938366
	      0.1081291
	      0.1004598
	      0.1076215
	      0.1076223
	      0.1004594
	      0.1081277
	      0.0938380
	      0.1162233
	      0.1166330
	      0.0928854
	      0.1162624
	      0.1076213
	      0.1163993
	      0.1163997
	      0.1076203
	      0.1162612
	      0.0928861
	      0.1166328
	      0.1166326
	      0.0928845
	      0.1162632
	      0.1076223
	      0.1163998
	      0.1164002
	      0.1076213
	      0.1162619
	      0.0928852
	      0.1166323
	      0.1162225
	      0.0938356
	      0.1081284
	      0.1004590
	      0.1076203
	      0.1076211
	      0.1004587
	      0.1081270
	      0.0938370
	      0.1162224
	      0.1142242
	      0.0933674
	      0.1064708
	      0.1081271
	      0.1162604
	      0.1162612
	      0.1081265
	      0.1064689
	      0.0933685
	      0.1142242
	      0.1159990
	      0.0929057
	      0.0933689
	      0.0938382
	      0.0928863
	      0.0928857
	      0.0938376
	      0.0933689
	      0.0929063
	      0.1159997
	      0.1378628
	      0.1160006
	      0.1142252
	      0.1162233
	      0.1166329
	      0.1166327
	      0.1162229
	      0.1142248
	      0.1160001
	      0.1378624
	      0.1378070
	      0.1159631
	      0.1142303
	      0.1162672
	      0.1167473
	      0.1167471
	      0.1162668
	      0.1142299
	      0.1159627
	      0.1378068
	      0.1159636
	      0.0930813
	      0.0936473
	      0.0943286
	      0.0937627
	      0.0937623
	      0.0943280
	      0.0936471
	      0.0930817
	      0.1159645
	      0.1142309
	      0.0936477
	      0.1070109
	      0.1081016
	      0.1161436
	      0.1161442
	      0.1081015
	      0.1070096
	      0.0936479
	      0.1142312
	      0.1162678
	      0.0943289
	      0.1081011
	      0.1002576
	      0.1076051
	      0.1076056
	      0.1002577
	      0.1081004
	      0.0943295
	      0.1162678
	      0.1167476
	      0.0937630
	      0.1161431
	      0.1076051
	      0.1171664
	      0.1171667
	      0.1076046
	      0.1161425
	      0.0937631
	      0.1167476
	      0.1167473
	      0.0937625
	      0.1161436
	      0.1076056
	      0.1171667
	      0.1171669
	      0.1076050
	      0.1161430
	      0.0937626
	      0.1167472
	      0.1162669
	      0.0943281
	      0.1081011
	      0.1002576
	      0.1076046
	      0.1076050
	      0.1002577
	      0.1081004
	      0.0943287
	      0.1162669
	      0.1142298
	      0.0936470
	      0.1070091
	      0.1081000
	      0.1161419
	      0.1161425
	      0.1080998
	      0.1070078
	      0.0936473
	      0.1142301
	      0.1159626
	      0.0930819
	      0.0936479
	      0.0943296
	      0.0937633
	      0.0937629
	      0.0943290
	      0.0936476
	      0.0930824
	      0.1159634
	      0.1378075
	      0.1159643
	      0.1142311
	      0.1162679
	      0.1167478
	      0.1167476
	      0.1162675
	      0.1142307
	      0.1159639
	      0.1378072
	      0.1689831
	      0.1332938
	      0.1264936
	      0.1260625
	      0.1262234
	      0.1262233
	      0.1260621
	      0.1264929
	      0.1332928
	      0.1689816
	      0.1332940
	      0.1073202
	      0.1035488
	      0.1021033
	      0.1017862
	      0.1017861
	      0.1021031
	      0.1035482
	      0.1073201
	      0.1332935
	      0.1264938
	      0.1035491
	      0.1221097
	      0.1191911
	      0.1275669
	      0.1275670
	      0.1191912
	      0.1221082
	      0.1035488
	      0.1264925
	      0.1260625
	      0.1021034
	      0.1191904
	      0.1080187
	      0.1166246
	      0.1166247
	      0.1080189
	      0.1191894
	      0.1021028
	      0.1260610
	      0.1262233
	      0.1017860
	      0.1275663
	      0.1166245
	      0.1279126
	      0.1279130
	      0.1166241
	      0.1275648
	      0.1017855
	      0.1262217
	      0.1262230
	      0.1017860
	      0.1275663
	      0.1166245
	      0.1279129
	      0.1279133
	      0.1166241
	      0.1275647
	      0.1017855
	      0.1262215
	      0.1260617
	      0.1021030
	      0.1191907
	      0.1080186
	      0.1166238
	      0.1166240
	      0.1080188
	      0.1191896
	      0.1021024
	      0.1260602
	      0.1264923
	      0.1035478
	      0.1221072
	      0.1191888
	      0.1275641
	      0.1275642
	      0.1191889
	      0.1221057
	      0.1035476
	      0.1264911
	      0.1332921
	      0.1073200
	      0.1035484
	      0.1021027
	      0.1017854
	      0.1017853
	      0.1021025
	      0.1035478
	      0.1073198
	      0.1332916
	      0.1689815
	      0.1332929
	      0.1264920
	      0.1260606
	      0.1262214
	      0.1262213
	      0.1260602
	      0.1264913
	      0.1332919
	      0.1689799
	      0.1777735
	      0.1304559
	      0.1186342
	      0.1177393
	      0.1172216
	      0.1172216
	      0.1177389
	      0.1186334
	      0.1304546
	      0.1777710
	      0.1304560
	      0.1025590
	      0.0965004
	      0.0968099
	      0.0961337
	      0.0961336
	      0.0968095
	      0.0964998
	      0.1025585
	      0.1304543
	      0.1186340
	      0.0965004
	      0.0940235
	      0.0924023
	      0.0953130
	      0.0953132
	      0.0924024
	      0.0940223
	      0.0965014
	      0.1186319
	      0.1177389
	      0.0968096
	      0.0924018
	      0.0891442
	      0.0935602
	      0.0935608
	      0.0891449
	      0.0924006
	      0.0968102
	      0.1177365
	      0.1172211
	      0.0961335
	      0.0953126
	      0.0935604
	      0.0995639
	      0.0995647
	      0.0935609
	      0.0953113
	      0.0961339
	      0.1172187
	      0.1172210
	      0.0961333
	      0.0953127
	      0.0935609
	      0.0995649
	      0.0995657
	      0.0935614
	      0.0953114
	      0.0961337
	      0.1172185
	      0.1177382
	      0.0968092
	      0.0924022
	      0.0891450
	      0.0935610
	      0.0935616
	      0.0891457
	      0.0924010
	      0.0968097
	      0.1177358
	      0.1186327
	      0.0964995
	      0.0940216
	      0.0924004
	      0.0953109
	      0.0953110
	      0.0924005
	      0.0940205
	      0.0965005
	      0.1186305
	      0.1304537
	      0.1025589
	      0.0965010
	      0.0968098
	      0.0961336
	      0.0961335
	      0.0968094
	      0.0965005
	      0.1025584
	      0.1304521
	      0.1777702
	      0.1304534
	      0.1186311
	      0.1177358
	      0.1172181
	      0.1172180
	      0.1177354
	      0.1186303
	      0.1304521
	      0.1777676
	      0.0777651
	      0.0600102
	      0.0597687
	      0.0652396
	      0.0659098
	      0.0659098
	      0.0652395
	      0.0597687
	      0.0600102
	      0.0777647
	      0.0600104
	      0.0626085
	      0.0626323
	      0.0742529
	      0.0734682
	      0.0734681
	      0.0742524
	      0.0626320
	      0.0626082
	      0.0600103
	      0.0597687
	      0.0626320
	      0.0515836
	      0.0622015
	      0.0596094
	      0.0596088
	      0.0622007
	      0.0515833
	      0.0626314
	      0.0597684
	      0.0652395
	      0.0742525
	      0.0622015
	      0.0735644
	      0.0708925
	      0.0708917
	      0.0735635
	      0.0622013
	      0.0742516
	      0.0652387
	      0.0659098
	      0.0734680
	      0.0596094
	      0.0708924
	      0.0676979
	      0.0676970
	      0.0708914
	      0.0596095
	      0.0734673
	      0.0659090
	      0.0659098
	      0.0734677
	      0.0596086
	      0.0708913
	      0.0676967
	      0.0676958
	      0.0708903
	      0.0596086
	      0.0734670
	      0.0659090
	      0.0652394
	      0.0742519
	      0.0622005
	      0.0735631
	      0.0708910
	      0.0708902
	      0.0735621
	      0.0622003
	      0.0742511
	      0.0652386
	      0.0597685
	      0.0626315
	      0.0515830
	      0.0622011
	      0.0596092
	      0.0596087
	      0.0622003
	      0.0515828
	      0.0626309
	      0.0597682
	      0.0600102
	      0.0626081
	      0.0626309
	      0.0742511
	      0.0734669
	      0.0734667
	      0.0742507
	      0.0626306
	      0.0626077
	      0.0600101
	      0.0777651
	      0.0600103
	      0.0597683
	      0.0652386
	      0.0659089
	      0.0659090
	      0.0652385
	      0.0597682
	      0.0600103
	      0.0777646
	      0.9765991
	      0.5569628
	      0.5515376
	      0.5754337
	      0.5484658
	      0.5484638
	      0.5754298
	      0.5515341
	      0.5569554
	      0.9765747
	      0.5569578
	      0.1178543
	      0.1145987
	      0.1423920
	      0.1213266
	      0.1213260
	      0.1423914
	      0.1146004
	      0.1178545
	      0.5569424
	      0.5515309
	      0.1145981
	      0.1148768
	      0.1547986
	      0.1319797
	      0.1319786
	      0.1547973
	      0.1148785
	      0.1145986
	      0.5515132
	      0.5754270
	      0.1423920
	      0.1547994
	      0.2064407
	      0.1825678
	      0.1825665
	      0.2064390
	      0.1548009
	      0.1423922
	      0.5754079
	      0.5484586
	      0.1213267
	      0.1319805
	      0.1825676
	      0.1554743
	      0.1554729
	      0.1825658
	      0.1319824
	      0.1213275
	      0.5484399
	      0.5484560
	      0.1213257
	      0.1319788
	      0.1825654
	      0.1554719
	      0.1554705
	      0.1825635
	      0.1319807
	      0.1213265
	      0.5484373
	      0.5754223
	      0.1423911
	      0.1547975
	      0.2064380
	      0.1825647
	      0.1825634
	      0.2064363
	      0.1547990
	      0.1423913
	      0.5754032
	      0.5515275
	      0.1146004
	      0.1148794
	      0.1548011
	      0.1319825
	      0.1319815
	      0.1547999
	      0.1148811
	      0.1146009
	      0.5515098
	      0.5569486
	      0.1178542
	      0.1145987
	      0.1423919
	      0.1213272
	      0.1213266
	      0.1423913
	      0.1146003
	      0.1178544
	      0.5569332
	      0.9765651
	      0.5569357
	      0.5515065
	      0.5754005
	      0.5484321
	      0.5484301
	      0.5753965
	      0.5515030
	      0.5569282
	      0.9765407
