# vtk DataFile Version 3.0
test_file
ASCII
DATASET POLYDATA
POINTS 1000 float
   0.15000 	   -0.00000 	    0.00000
   0.15000 	   -0.00000 	    1.00000
   0.15000 	    0.00000 	    2.00000
   0.15000 	    0.00000 	    3.00000
   0.15000 	    0.00000 	    4.00000
   0.15000 	    0.00000 	    5.00000
   0.15000 	    0.00000 	    6.00000
   0.15000 	    0.00000 	    7.00000
   0.15000 	   -0.00000 	    8.00000
   0.15000 	    0.00000 	    9.00000
   0.15000 	    1.00000 	    0.00000
   0.15000 	    1.00000 	    1.00000
   0.15000 	    1.00000 	    2.00000
   0.15000 	    1.00000 	    3.00000
   0.15000 	    1.00000 	    4.00000
   0.15000 	    1.00000 	    5.00000
   0.15000 	    1.00000 	    6.00000
   0.15000 	    1.00000 	    7.00000
   0.15000 	    1.00000 	    8.00000
   0.15000 	    1.00000 	    9.00000
   0.15000 	    2.00000 	    0.00000
   0.15000 	    2.00000 	    1.00000
   0.15000 	    2.00000 	    2.00000
   0.15000 	    2.00000 	    3.00000
   0.15000 	    2.00000 	    4.00000
   0.15000 	    2.00000 	    5.00000
   0.15000 	    2.00000 	    6.00000
   0.15000 	    2.00000 	    7.00000
   0.15000 	    2.00000 	    8.00000
   0.15000 	    2.00000 	    9.00000
   0.15000 	    3.00000 	    0.00000
   0.15000 	    3.00000 	    1.00000
   0.15000 	    3.00000 	    2.00000
   0.15000 	    3.00000 	    3.00000
   0.15000 	    3.00000 	    4.00000
   0.15000 	    3.00000 	    5.00000
   0.15000 	    3.00000 	    6.00000
   0.15000 	    3.00000 	    7.00000
   0.15000 	    3.00000 	    8.00000
   0.15000 	    3.00000 	    9.00000
   0.15000 	    4.00000 	    0.00000
   0.15000 	    4.00000 	    1.00000
   0.15000 	    4.00000 	    2.00000
   0.15000 	    4.00000 	    3.00000
   0.15000 	    4.00000 	    4.00000
   0.15000 	    4.00000 	    5.00000
   0.15000 	    4.00000 	    6.00000
   0.15000 	    4.00000 	    7.00000
   0.15000 	    4.00000 	    8.00000
   0.15000 	    4.00000 	    9.00000
   0.15000 	    5.00000 	    0.00000
   0.15000 	    5.00000 	    1.00000
   0.15000 	    5.00000 	    2.00000
   0.15000 	    5.00000 	    3.00000
   0.15000 	    5.00000 	    4.00000
   0.15000 	    5.00000 	    5.00000
   0.15000 	    5.00000 	    6.00000
   0.15000 	    5.00000 	    7.00000
   0.15000 	    5.00000 	    8.00000
   0.15000 	    5.00000 	    9.00000
   0.15000 	    6.00000 	    0.00000
   0.15000 	    6.00000 	    1.00000
   0.15000 	    6.00000 	    2.00000
   0.15000 	    6.00000 	    3.00000
   0.15000 	    6.00000 	    4.00000
   0.15000 	    6.00000 	    5.00000
   0.15000 	    6.00000 	    6.00000
   0.15000 	    6.00000 	    7.00000
   0.15000 	    6.00000 	    8.00000
   0.15000 	    6.00000 	    9.00000
   0.15000 	    7.00000 	    0.00000
   0.15000 	    7.00000 	    1.00000
   0.15000 	    7.00000 	    2.00000
   0.15000 	    7.00000 	    3.00000
   0.15000 	    7.00000 	    4.00000
   0.15000 	    7.00000 	    5.00000
   0.15000 	    7.00000 	    6.00000
   0.15000 	    7.00000 	    7.00000
   0.15000 	    7.00000 	    8.00000
   0.15000 	    7.00000 	    9.00000
   0.15000 	    8.00000 	    0.00000
   0.15000 	    8.00000 	    1.00000
   0.15000 	    8.00000 	    2.00000
   0.15000 	    8.00000 	    3.00000
   0.15000 	    8.00000 	    4.00000
   0.15000 	    8.00000 	    5.00000
   0.15000 	    8.00000 	    6.00000
   0.15000 	    8.00000 	    7.00000
   0.15000 	    8.00000 	    8.00000
   0.15000 	    8.00000 	    9.00000
   0.15000 	    9.00000 	    0.00000
   0.15000 	    9.00000 	    1.00000
   0.15000 	    9.00000 	    2.00000
   0.15000 	    9.00000 	    3.00000
   0.15000 	    9.00000 	    4.00000
   0.15000 	    9.00000 	    5.00000
   0.15000 	    9.00000 	    6.00000
   0.15000 	    9.00000 	    7.00000
   0.15000 	    9.00000 	    8.00000
   0.15000 	    9.00000 	    9.00000
   1.14291 	   -0.02635 	   -0.02635
   1.14241 	   -0.02859 	    0.98371
   1.14156 	   -0.02944 	    1.99179
   1.14181 	   -0.03061 	    2.99362
   1.14153 	   -0.03088 	    3.99742
   1.14153 	   -0.03088 	    5.00258
   1.14181 	   -0.03061 	    6.00638
   1.14156 	   -0.02944 	    7.00821
   1.14241 	   -0.02859 	    8.01629
   1.14291 	   -0.02634 	    9.02634
   1.14241 	    0.98371 	   -0.02859
   1.14424 	    0.97818 	    0.97818
   1.14240 	    0.97795 	    1.99212
   1.14266 	    0.97731 	    2.99037
   1.14291 	    0.97729 	    3.99531
   1.14291 	    0.97729 	    5.00469
   1.14266 	    0.97731 	    6.00963
   1.14240 	    0.97795 	    7.00788
   1.14424 	    0.97818 	    8.02182
   1.14241 	    0.98371 	    9.02859
   1.14156 	    1.99179 	   -0.02944
   1.14240 	    1.99212 	    0.97795
   1.14082 	    1.99254 	    1.99254
   1.14038 	    1.99250 	    2.98863
   1.14116 	    1.99206 	    3.99457
   1.14116 	    1.99206 	    5.00543
   1.14038 	    1.99250 	    6.01137
   1.14082 	    1.99254 	    7.00746
   1.14240 	    1.99212 	    8.02205
   1.14156 	    1.99179 	    9.02944
   1.14181 	    2.99362 	   -0.03061
   1.14266 	    2.99037 	    0.97731
   1.14038 	    2.98863 	    1.99250
   1.13955 	    2.98801 	    2.98801
   1.14039 	    2.98740 	    3.99443
   1.14039 	    2.98740 	    5.00557
   1.13955 	    2.98801 	    6.01198
   1.14038 	    2.98863 	    7.00750
   1.14266 	    2.99037 	    8.02269
   1.14182 	    2.99362 	    9.03061
   1.14153 	    3.99742 	   -0.03088
   1.14291 	    3.99531 	    0.97729
   1.14116 	    3.99457 	    1.99206
   1.14039 	    3.99443 	    2.98740
   1.14130 	    3.99422 	    3.99422
   1.14130 	    3.99422 	    5.00578
   1.14039 	    3.99443 	    6.01260
   1.14116 	    3.99457 	    7.00794
   1.14291 	    3.99531 	    8.02271
   1.14153 	    3.99742 	    9.03087
   1.14153 	    5.00258 	   -0.03088
   1.14291 	    5.00469 	    0.97729
   1.14116 	    5.00543 	    1.99206
   1.14039 	    5.00557 	    2.98740
   1.14130 	    5.00578 	    3.99422
   1.14130 	    5.00578 	    5.00578
   1.14039 	    5.00557 	    6.01260
   1.14116 	    5.00543 	    7.00794
   1.14291 	    5.00469 	    8.02271
   1.14153 	    5.00258 	    9.03087
   1.14181 	    6.00638 	   -0.03061
   1.14266 	    6.00963 	    0.97731
   1.14038 	    6.01137 	    1.99250
   1.13955 	    6.01198 	    2.98801
   1.14039 	    6.01260 	    3.99443
   1.14039 	    6.01260 	    5.00557
   1.13955 	    6.01198 	    6.01198
   1.14038 	    6.01137 	    7.00750
   1.14266 	    6.00963 	    8.02269
   1.14182 	    6.00638 	    9.03061
   1.14156 	    7.00821 	   -0.02944
   1.14240 	    7.00788 	    0.97795
   1.14082 	    7.00746 	    1.99254
   1.14038 	    7.00750 	    2.98863
   1.14116 	    7.00794 	    3.99457
   1.14116 	    7.00794 	    5.00543
   1.14038 	    7.00750 	    6.01137
   1.14082 	    7.00746 	    7.00746
   1.14240 	    7.00788 	    8.02205
   1.14156 	    7.00821 	    9.02944
   1.14241 	    8.01629 	   -0.02859
   1.14424 	    8.02182 	    0.97818
   1.14240 	    8.02205 	    1.99212
   1.14266 	    8.02269 	    2.99037
   1.14291 	    8.02271 	    3.99531
   1.14291 	    8.02271 	    5.00469
   1.14266 	    8.02269 	    6.00963
   1.14240 	    8.02205 	    7.00788
   1.14424 	    8.02182 	    8.02182
   1.14241 	    8.01629 	    9.02859
   1.14291 	    9.02634 	   -0.02634
   1.14241 	    9.02859 	    0.98371
   1.14156 	    9.02944 	    1.99179
   1.14182 	    9.03061 	    2.99362
   1.14153 	    9.03087 	    3.99742
   1.14153 	    9.03087 	    5.00258
   1.14182 	    9.03061 	    6.00638
   1.14156 	    9.02944 	    7.00821
   1.14241 	    9.02859 	    8.01629
   1.14291 	    9.02634 	    9.02634
   2.11479 	   -0.03640 	   -0.03640
   2.12056 	   -0.03863 	    0.97172
   2.12198 	   -0.04117 	    1.98136
   2.12160 	   -0.04324 	    2.98858
   2.12117 	   -0.04425 	    3.99623
   2.12117 	   -0.04425 	    5.00377
   2.12160 	   -0.04324 	    6.01142
   2.12198 	   -0.04117 	    7.01864
   2.12056 	   -0.03863 	    8.02827
   2.11479 	   -0.03640 	    9.03640
   2.12056 	    0.97172 	   -0.03863
   2.13760 	    0.96847 	    0.96847
   2.14291 	    0.96332 	    1.98379
   2.14090 	    0.96136 	    2.98976
   2.14030 	    0.96022 	    3.99671
   2.14030 	    0.96022 	    5.00329
   2.14090 	    0.96136 	    6.01024
   2.14291 	    0.96332 	    7.01621
   2.13760 	    0.96847 	    8.03153
   2.12056 	    0.97173 	    9.03862
   2.12198 	    1.98136 	   -0.04117
   2.14291 	    1.98379 	    0.96333
   2.14655 	    1.98281 	    1.98281
   2.14191 	    1.98011 	    2.99110
   2.14135 	    1.97926 	    3.99732
   2.14135 	    1.97926 	    5.00268
   2.14191 	    1.98011 	    6.00890
   2.14655 	    1.98281 	    7.01719
   2.14291 	    1.98379 	    8.03667
   2.12198 	    1.98136 	    9.04117
   2.12160 	    2.98858 	   -0.04324
   2.14090 	    2.98976 	    0.96136
   2.14191 	    2.99110 	    1.98011
   2.13588 	    2.99002 	    2.99002
   2.13526 	    2.98983 	    3.99710
   2.13526 	    2.98983 	    5.00289
   2.13588 	    2.99002 	    6.00998
   2.14191 	    2.99110 	    7.01989
   2.14090 	    2.98976 	    8.03864
   2.12160 	    2.98858 	    9.04324
   2.12117 	    3.99623 	   -0.04425
   2.14030 	    3.99671 	    0.96022
   2.14135 	    3.99732 	    1.97926
   2.13526 	    3.99710 	    2.98983
   2.13484 	    3.99712 	    3.99712
   2.13484 	    3.99712 	    5.00288
   2.13526 	    3.99710 	    6.01016
   2.14135 	    3.99732 	    7.02074
   2.14030 	    3.99671 	    8.03978
   2.12117 	    3.99623 	    9.04425
   2.12117 	    5.00377 	   -0.04425
   2.14030 	    5.00329 	    0.96022
   2.14135 	    5.00268 	    1.97926
   2.13526 	    5.00289 	    2.98983
   2.13484 	    5.00288 	    3.99712
   2.13484 	    5.00288 	    5.00288
   2.13526 	    5.00289 	    6.01016
   2.14135 	    5.00268 	    7.02074
   2.14030 	    5.00329 	    8.03978
   2.12117 	    5.00377 	    9.04425
   2.12160 	    6.01142 	   -0.04324
   2.14090 	    6.01024 	    0.96136
   2.14191 	    6.00890 	    1.98011
   2.13588 	    6.00998 	    2.99002
   2.13526 	    6.01016 	    3.99710
   2.13526 	    6.01016 	    5.00289
   2.13588 	    6.00998 	    6.00998
   2.14191 	    6.00890 	    7.01989
[...]
POINT_DATA 1000
SCALARS C float
LOOKUP_TABLE default
	      0.6763892
	      0.3926397
	      0.3618811
	      0.3756177
	      0.3707078
	      0.3707055
	      0.3756147
	      0.3618792
	      0.3926328
	      0.6763697
	      0.3926364
	      0.1362667
	      0.1116705
	      0.1237237
	      0.1187611
	      0.1187592
	      0.1237226
	      0.1116718
	      0.1362647
	      0.3926236
	      0.3618763
	      0.1116696
	      0.0914662
	      0.1091423
	      0.1049636
	      0.1049614
	      0.1091412
	      0.0914683
	      0.1116684
	      0.3618632
	      0.3756126
	      0.1237231
	      0.1091429
	      0.1324359
	      0.1291565
	      0.1291541
	      0.1324344
	      0.1091450
	      0.1237219
	      0.3755986
	      0.3707025
	      0.1187606
	      0.1049643
	      0.1291566
	      0.1253488
	      0.1253462
	      0.1291550
	      0.1049664
	      0.1187593
	      0.3706881
	      0.3706996
	      0.1187581
	      0.1049613
	      0.1291532
	      0.1253451
	      0.1253426
	      0.1291515
	      0.1049634
	      0.1187568
	      0.3706852
	      0.3756094
	      0.1237216
	      0.1091413
	      0.1324337
	      0.1291540
	      0.1291516
	      0.1324323
	      0.1091434
	      0.1237204
	      0.3755953
	      0.3618745
	      0.1116712
	      0.0914689
	      0.1091451
	      0.1049663
	      0.1049641
	      0.1091440
	      0.0914710
	      0.1116701
	      0.3618614
	      0.3926275
	      0.1362632
	      0.1116678
	      0.1237210
	      0.1187582
	      0.1187564
	      0.1237198
	      0.1116691
	      0.1362613
	      0.3926147
	      0.6763619
	      0.3926183
	      0.3618584
	      0.3755932
	      0.3706822
	      0.3706799
	      0.3755903
	      0.3618565
	      0.3926114
	      0.6763424
	      0.0614726
	      0.0461071
	      0.0454241
	      0.0494820
	      0.0487930
	      0.0487928
	      0.0494818
	      0.0454239
	      0.0461069
	      0.0614718
	      0.0461072
	      0.0410694
	      0.0404958
	      0.0488657
	      0.0480037
	      0.0480031
	      0.0488652
	      0.0404957
	      0.0410695
	      0.0461064
	      0.0454240
	      0.0404959
	      0.0381379
	      0.0459481
	      0.0459067
	      0.0459059
	      0.0459472
	      0.0381376
	      0.0404964
	      0.0454229
	      0.0494818
	      0.0488657
	      0.0459481
	      0.0545824
	      0.0551561
	      0.0551552
	      0.0545813
	      0.0459478
	      0.0488663
	      0.0494802
	      0.0487928
	      0.0480037
	      0.0459067
	      0.0551560
	      0.0559813
	      0.0559804
	      0.0551549
	      0.0459063
	      0.0480042
	      0.0487910
	      0.0487926
	      0.0480029
	      0.0459056
	      0.0551548
	      0.0559800
	      0.0559790
	      0.0551537
	      0.0459053
	      0.0480034
	      0.0487908
	      0.0494815
	      0.0488649
	      0.0459470
	      0.0545809
	      0.0551545
	      0.0551536
	      0.0545798
	      0.0459466
	      0.0488656
	      0.0494799
	      0.0454236
	      0.0404955
	      0.0381374
	      0.0459475
	      0.0459060
	      0.0459052
	      0.0459467
	      0.0381371
	      0.0404960
	      0.0454225
	      0.0461067
	      0.0410697
	      0.0404962
	      0.0488660
	      0.0480040
	      0.0480034
	      0.0488655
	      0.0404960
	      0.0410698
	      0.0461059
	      0.0614716
	      0.0461062
	      0.0454226
	      0.0494799
	      0.0487908
	      0.0487906
	      0.0494796
	      0.0454224
	      0.0461060
	      0.0614708
	      0.1335670
	      0.0990670
	      0.0907446
	      0.0900221
	      0.0892542
	      0.0892540
	      0.0900214
	      0.0907438
	      0.0990660
	      0.1335650
	      0.0990671
	      0.0740968
	      0.0670104
	      0.0667967
	      0.0662063
	      0.0662061
	      0.0667962
	      0.0670098
	      0.0740964
	      0.0990663
	      0.0907446
	      0.0670106
	      0.0781410
	      0.0736405
	      0.0740040
	      0.0740039
	      0.0736407
	      0.0781408
	      0.0670100
	      0.0907435
	      0.0900218
	      0.0667964
	      0.0736402
	      0.0669462
	      0.0678693
	      0.0678692
	      0.0669464
	      0.0736397
	      0.0667955
	      0.0900207
	      0.0892539
	      0.0662058
	      0.0740038
	      0.0678693
	      0.0703915
	      0.0703916
	      0.0678695
	      0.0740034
	      0.0662051
	      0.0892527
	      0.0892536
	      0.0662056
	      0.0740036
	      0.0678692
	      0.0703916
	      0.0703917
	      0.0678695
	      0.0740032
	      0.0662050
	      0.0892524
	      0.0900209
	      0.0667959
	      0.0736404
	      0.0669464
	      0.0678695
	      0.0678695
	      0.0669465
	      0.0736400
	      0.0667950
	      0.0900198
	      0.0907433
	      0.0670095
	      0.0781403
	      0.0736394
	      0.0740031
	      0.0740030
	      0.0736397
	      0.0781401
	      0.0670090
	      0.0907421
	      0.0990653
	      0.0740964
	      0.0670097
	      0.0667952
	      0.0662047
	      0.0662045
	      0.0667947
	      0.0670091
	      0.0740960
	      0.0990645
	      0.1335646
	      0.0990656
	      0.0907429
	      0.0900202
	      0.0892523
	      0.0892520
	      0.0900196
	      0.0907421
	      0.0990646
	      0.1335626
	      0.1268041
	      0.1001659
	      0.0954092
	      0.0949406
	      0.0945814
	      0.0945812
	      0.0949400
	      0.0954085
	      0.1001652
	      0.1268028
	      0.1001661
	      0.0818962
	      0.0770959
	      0.0764808
	      0.0768752
	      0.0768750
	      0.0764801
	      0.0770952
	      0.0818962
	      0.1001656
	      0.0954094
	      0.0770961
	      0.0840619
	      0.0810732
	      0.0844125
	      0.0844128
	      0.0810732
	      0.0840614
	      0.0770952
	      0.0954087
	      0.0949407
	      0.0764809
	      0.0810729
	      0.0752087
	      0.0791685
	      0.0791690
	      0.0752085
	      0.0810717
	      0.0764792
	      0.0949402
	      0.0945814
	      0.0768748
	      0.0844120
	      0.0791683
	      0.0851004
	      0.0851010
	      0.0791682
	      0.0844109
	      0.0768733
	      0.0945808
	      0.0945810
	      0.0768745
	      0.0844124
	      0.0791689
	      0.0851011
	      0.0851018
	      0.0791688
	      0.0844113
	      0.0768730
	      0.0945803
	      0.0949396
	      0.0764797
	      0.0810728
	      0.0752083
	      0.0791682
	      0.0791687
	      0.0752081
	      0.0810717
	      0.0764780
	      0.0949391
	      0.0954081
	      0.0770947
	      0.0840607
	      0.0810713
	      0.0844105
	      0.0844109
	      0.0810714
	      0.0840602
	      0.0770938
	      0.0954074
	      0.1001647
	      0.0818959
	      0.0770947
	      0.0764788
	      0.0768729
	      0.0768726
	      0.0764780
	      0.0770940
	      0.0818959
	      0.1001641
	      0.1268027
	      0.1001651
	      0.0954083
	      0.0949399
	      0.0945806
	      0.0945803
	      0.0949392
	      0.0954076
	      0.1001643
	      0.1268013
	      0.1049552
	      0.0855822
	      0.0833369
	      0.0841234
	      0.0836804
	      0.0836803
	      0.0841230
	      0.0833366
	      0.0855818
	      0.1049545
	      0.0855825
	      0.0670200
	      0.0751125
	      0.0782275
	      0.0782431
	      0.0782428
	      0.0782270
	      0.0751122
	      0.0670204
	      0.0855821
	      0.0833372
	      0.0751126
	      0.0730263
	      0.0771556
	      0.0818399
	      0.0818398
	      0.0771551
	      0.0730254
	      0.0751146
	      0.0833364
	      0.0841236
	      0.0782279
	      0.0771554
	      0.0804730
	      0.0860296
	      0.0860297
	      0.0804721
	      0.0771539
	      0.0782295
	      0.0841226
	      0.0836805
	      0.0782434
	      0.0818395
	      0.0860295
	      0.0934789
	      0.0934791
	      0.0860287
	      0.0818381
	      0.0782453
	      0.0836792
	      0.0836802
	      0.0782431
	      0.0818394
	      0.0860295
	      0.0934790
	      0.0934793
	      0.0860287
	      0.0818381
	      0.0782450
	      0.0836788
	      0.0841228
	      0.0782271
	      0.0771546
	      0.0804717
	      0.0860284
	      0.0860285
	      0.0804709
	      0.0771532
	      0.0782288
	      0.0841217
	      0.0833363
	      0.0751123
	      0.0730249
	      0.0771535
	      0.0818377
	      0.0818377
	      0.0771529
	      0.0730240
	      0.0751143
	      0.0833355
	      0.0855815
	      0.0670210
	      0.0751147
	      0.0782297
	      0.0782455
	      0.0782453
	      0.0782292
	      0.0751144
	      0.0670213
	      0.0855811
	      0.1049547
	      0.0855818
	      0.0833361
	      0.0841223
	      0.0836791
	      0.0836789
	      0.0841220
	      0.0833358
	      0.0855814
	      0.1049539
	      0.1065128
	      0.0870874
	      0.0847576
	      0.0854473
	      0.0851701
	      0.0851699
	      0.0854469
	      0.0847573
	      0.0870870
	      0.1065122
	      0.0870876
	      0.0679886
	      0.0672669
	      0.0680344
	      0.0686948
	      0.0686947
	      0.0680341
	      0.0672665
	      0.0679886
	      0.0870879
	      0.0847580
	      0.0672671
	      0.0703476
	      0.0732590
	      0.0766318
	      0.0766319
	      0.0732588
	      0.0703470
	      0.0672678
	      0.0847577
	      0.0854476
	      0.0680346
	      0.0732588
	      0.0752577
	      0.0789941
	      0.0789943
	      0.0752574
	      0.0732578
	      0.0680347
	      0.0854471
	      0.0851703
	      0.0686948
	      0.0766315
	      0.0789940
	      0.0842002
	      0.0842006
	      0.0789937
	      0.0766306
	      0.0686951
	      0.0851696
	      0.0851699
	      0.0686947
	      0.0766316
	      0.0789942
	      0.0842006
	      0.0842010
	      0.0789939
	      0.0766307
	      0.0686949
	      0.0851692
	      0.0854468
	      0.0680340
	      0.0732585
	      0.0752571
	      0.0789936
	      0.0789938
	      0.0752568
	      0.0732575
	      0.0680341
	      0.0854463
	      0.0847571
	      0.0672664
	      0.0703465
	      0.0732574
	      0.0766302
	      0.0766303
	      0.0732572
	      0.0703460
	      0.0672671
	      0.0847568
	      0.0870868
	      0.0679888
	      0.0672677
	      0.0680346
	      0.0686950
	      0.0686949
	      0.0680343
	      0.0672673
	      0.0679888
	      0.0870870
	      0.1065126
	      0.0870877
	      0.0847575
	      0.0854470
	      0.0851696
	      0.0851694
	      0.0854466
	      0.0847571
	      0.0870873
	      0.1065120
	      0.1282267
	      0.1018333
	      0.0973609
	      0.0970488
	      0.0970127
	      0.0970125
	      0.0970482
	      0.0973603
	      0.1018327
	      0.1282255
	      0.1018336
	      0.0827994
	      0.0759419
	      0.0738966
	      0.0756651
	      0.0756650
	      0.0738962
	      0.0759412
	      0.0827990
	      0.1018335
	      0.0973612
	      0.0759421
	      0.0842417
	      0.0819810
	      0.0834104
	      0.0834106
	      0.0819811
	      0.0842412
	      0.0759409
	      0.0973607
	      0.0970489
	      0.0738965
	      0.0819807
	      0.0776754
	      0.0789178
	      0.0789182
	      0.0776755
	      0.0819799
	      0.0738944
	      0.0970486
	      0.0970128
	      0.0756646
	      0.0834100
	      0.0789177
	      0.0813097
	      0.0813102
	      0.0789179
	      0.0834092
	      0.0756626
	      0.0970125
	      0.0970124
	      0.0756645
	      0.0834103
	      0.0789181
	      0.0813102
	      0.0813107
	      0.0789183
	      0.0834095
	      0.0756626
	      0.0970121
	      0.0970479
	      0.0738958
	      0.0819808
	      0.0776753
	      0.0789178
	      0.0789182
	      0.0776755
	      0.0819799
	      0.0738937
	      0.0970476
	      0.0973599
	      0.0759407
	      0.0842406
	      0.0819795
	      0.0834089
	      0.0834091
	      0.0819796
	      0.0842402
	      0.0759395
	      0.0973595
	      0.1018322
	      0.0827987
	      0.0759404
	      0.0738940
	      0.0756621
	      0.0756621
	      0.0738935
	      0.0759397
	      0.0827984
	      0.1018321
	      0.1282256
	      0.1018330
	      0.0973604
	      0.0970484
	      0.0970124
	      0.0970121
	      0.0970478
	      0.0973597
	      0.1018323
	      0.1282244
	      0.1329378
	      0.0989071
	      0.0911265
	      0.0907784
	      0.0901801
	      0.0901798
	      0.0907777
	      0.0911257
	      0.0989060
	      0.1329358
	      0.0989071
	      0.0762300
	      0.0754017
	      0.0756911
	      0.0763623
	      0.0763620
	      0.0756907
	      0.0754011
	      0.0762298
	      0.0989057
	      0.0911265
	      0.0754018
	      0.0804537
	      0.0785836
	      0.0788990
	      0.0788987
	      0.0785835
	      0.0804535
	      0.0754022
	      0.0911247
	      0.0907780
	      0.0756909
	      0.0785834
	      0.0760159
	      0.0766170
	      0.0766167
	      0.0760159
	      0.0785831
	      0.0756910
	      0.0907763
	      0.0901797
	      0.0763620
	      0.0788988
	      0.0766170
	      0.0782783
	      0.0782781
	      0.0766169
	      0.0788986
	      0.0763623
	      0.0901780
	      0.0901793
	      0.0763618
	      0.0788984
	      0.0766167
	      0.0782780
	      0.0782778
	      0.0766166
	      0.0788982
	      0.0763621
	      0.0901777
	      0.0907771
	      0.0756905
	      0.0785833
	      0.0760158
	      0.0766168
	      0.0766166
	      0.0760157
	      0.0785830
	      0.0756907
	      0.0907754
	      0.0911251
	      0.0754010
	      0.0804532
	      0.0785828
	      0.0788983
	      0.0788980
	      0.0785828
	      0.0804530
	      0.0754014
	      0.0911233
	      0.0989053
	      0.0762301
	      0.0754021
	      0.0756909
	      0.0763621
	      0.0763618
	      0.0756904
	      0.0754015
	      0.0762300
	      0.0989039
	      0.1329351
	      0.0989050
	      0.0911241
	      0.0907757
	      0.0901775
	      0.0901772
	      0.0907751
	      0.0911233
	      0.0989039
	      0.1329330
	      0.0642932
	      0.0472137
	      0.0464184
	      0.0509085
	      0.0504075
	      0.0504073
	      0.0509082
	      0.0464183
	      0.0472136
	      0.0642924
	      0.0472138
	      0.0404548
	      0.0370928
	      0.0432492
	      0.0437147
	      0.0437142
	      0.0432486
	      0.0370928
	      0.0404547
	      0.0472132
	      0.0464183
	      0.0370928
	      0.0297976
	      0.0353608
	      0.0368514
	      0.0368506
	      0.0353599
	      0.0297974
	      0.0370927
	      0.0464175
	      0.0509083
	      0.0432491
	      0.0353609
	      0.0416709
	      0.0441386
	      0.0441377
	      0.0416698
	      0.0353608
	      0.0432491
	      0.0509070
	      0.0504073
	      0.0437146
	      0.0368514
	      0.0441385
	      0.0474430
	      0.0474421
	      0.0441373
	      0.0368512
	      0.0437145
	      0.0504058
	      0.0504070
	      0.0437138
	      0.0368503
	      0.0441373
	      0.0474417
	      0.0474408
	      0.0441361
	      0.0368502
	      0.0437137
	      0.0504055
	      0.0509079
	      0.0432482
	      0.0353596
	      0.0416693
	      0.0441369
	      0.0441360
	      0.0416682
	      0.0353594
	      0.0432481
	      0.0509066
	      0.0464180
	      0.0370925
	      0.0297972
	      0.0353604
	      0.0368509
	      0.0368502
	      0.0353595
	      0.0297971
	      0.0370924
	      0.0464172
	      0.0472135
	      0.0404547
	      0.0370924
	      0.0432487
	      0.0437142
	      0.0437136
	      0.0432480
	      0.0370924
	      0.0404547
	      0.0472129
	      0.0642925
	      0.0472131
	      0.0464172
	      0.0509067
	      0.0504056
	      0.0504054
	      0.0509064
	      0.0464171
	      0.0472130
	      0.0642917
	      0.6701019
	      0.3928375
	      0.3546365
	      0.3650406
	      0.3638662
	      0.3638644
	      0.3650380
	      0.3546342
	      0.3928307
	      0.6700827
	      0.3928344
	      0.1509090
	      0.1201454
	      0.1291443
	      0.1275733
	      0.1275721
	      0.1291435
	      0.1201463
	      0.1509071
	      0.3928220
	      0.3546317
	      0.1201445
	      0.0941769
	      0.1086799
	      0.1080893
	      0.1080878
	      0.1086792
	      0.0941785
	      0.1201434
	      0.3546191
	      0.3650356
	      0.1291436
	      0.1086803
	      0.1287570
	      0.1290262
	      0.1290245
	      0.1287560
	      0.1086820
	      0.1291425
	      0.3650219
	      0.3638609
	      0.1275728
	      0.1080899
	      0.1290263
	      0.1286857
	      0.1286839
	      0.1290252
	      0.1080915
	      0.1275715
	      0.3638469
	      0.3638587
	      0.1275711
	      0.1080878
	      0.1290239
	      0.1286831
	      0.1286814
	      0.1290228
	      0.1080894
	      0.1275698
	      0.3638447
	      0.3650328
	      0.1291426
	      0.1086793
	      0.1287556
	      0.1290246
	      0.1290229
	      0.1287547
	      0.1086810
	      0.1291415
	      0.3650192
	      0.3546296
	      0.1201457
	      0.0941790
	      0.1086821
	      0.1080915
	      0.1080900
	      0.1086814
	      0.0941806
	      0.1201446
	      0.3546170
	      0.3928256
	      0.1509057
	      0.1201428
	      0.1291416
	      0.1275705
	      0.1275692
	      0.1291408
	      0.1201437
	      0.1509038
	      0.3928132
	      0.6700750
	      0.3928168
	      0.3546145
	      0.3650167
	      0.3638412
	      0.3638394
	      0.3650142
	      0.3546122
	      0.3928101
	      0.6700558
