# vtk DataFile Version 3.0
test_file
ASCII
DATASET POLYDATA
POINTS 1000 float
   0.52500 	   -0.00000 	    0.00000
   0.52500 	   -0.00000 	    1.00000
   0.52500 	    0.00000 	    2.00000
   0.52500 	    0.00000 	    3.00000
   0.52500 	    0.00000 	    4.00000
   0.52500 	    0.00000 	    5.00000
   0.52500 	    0.00000 	    6.00000
   0.52500 	    0.00000 	    7.00000
   0.52500 	   -0.00000 	    8.00000
   0.52500 	    0.00000 	    9.00000
   0.52500 	    1.00000 	    0.00000
   0.52500 	    1.00000 	    1.00000
   0.52500 	    1.00000 	    2.00000
   0.52500 	    1.00000 	    3.00000
   0.52500 	    1.00000 	    4.00000
   0.52500 	    1.00000 	    5.00000
   0.52500 	    1.00000 	    6.00000
   0.52500 	    1.00000 	    7.00000
   0.52500 	    1.00000 	    8.00000
   0.52500 	    1.00000 	    9.00000
   0.52500 	    2.00000 	    0.00000
   0.52500 	    2.00000 	    1.00000
   0.52500 	    2.00000 	    2.00000
   0.52500 	    2.00000 	    3.00000
   0.52500 	    2.00000 	    4.00000
   0.52500 	    2.00000 	    5.00000
   0.52500 	    2.00000 	    6.00000
   0.52500 	    2.00000 	    7.00000
   0.52500 	    2.00000 	    8.00000
   0.52500 	    2.00000 	    9.00000
   0.52500 	    3.00000 	    0.00000
   0.52500 	    3.00000 	    1.00000
   0.52500 	    3.00000 	    2.00000
   0.52500 	    3.00000 	    3.00000
   0.52500 	    3.00000 	    4.00000
   0.52500 	    3.00000 	    5.00000
   0.52500 	    3.00000 	    6.00000
   0.52500 	    3.00000 	    7.00000
   0.52500 	    3.00000 	    8.00000
   0.52500 	    3.00000 	    9.00000
   0.52500 	    4.00000 	    0.00000
   0.52500 	    4.00000 	    1.00000
   0.52500 	    4.00000 	    2.00000
   0.52500 	    4.00000 	    3.00000
   0.52500 	    4.00000 	    4.00000
   0.52500 	    4.00000 	    5.00000
   0.52500 	    4.00000 	    6.00000
   0.52500 	    4.00000 	    7.00000
   0.52500 	    4.00000 	    8.00000
   0.52500 	    4.00000 	    9.00000
   0.52500 	    5.00000 	    0.00000
   0.52500 	    5.00000 	    1.00000
   0.52500 	    5.00000 	    2.00000
   0.52500 	    5.00000 	    3.00000
   0.52500 	    5.00000 	    4.00000
   0.52500 	    5.00000 	    5.00000
   0.52500 	    5.00000 	    6.00000
   0.52500 	    5.00000 	    7.00000
   0.52500 	    5.00000 	    8.00000
   0.52500 	    5.00000 	    9.00000
   0.52500 	    6.00000 	    0.00000
   0.52500 	    6.00000 	    1.00000
   0.52500 	    6.00000 	    2.00000
   0.52500 	    6.00000 	    3.00000
   0.52500 	    6.00000 	    4.00000
   0.52500 	    6.00000 	    5.00000
   0.52500 	    6.00000 	    6.00000
   0.52500 	    6.00000 	    7.00000
   0.52500 	    6.00000 	    8.00000
   0.52500 	    6.00000 	    9.00000
   0.52500 	    7.00000 	    0.00000
   0.52500 	    7.00000 	    1.00000
   0.52500 	    7.00000 	    2.00000
   0.52500 	    7.00000 	    3.00000
   0.52500 	    7.00000 	    4.00000
   0.52500 	    7.00000 	    5.00000
   0.52500 	    7.00000 	    6.00000
   0.52500 	    7.00000 	    7.00000
   0.52500 	    7.00000 	    8.00000
   0.52500 	    7.00000 	    9.00000
   0.52500 	    8.00000 	    0.00000
   0.52500 	    8.00000 	    1.00000
   0.52500 	    8.00000 	    2.00000
   0.52500 	    8.00000 	    3.00000
   0.52500 	    8.00000 	    4.00000
   0.52500 	    8.00000 	    5.00000
   0.52500 	    8.00000 	    6.00000
   0.52500 	    8.00000 	    7.00000
   0.52500 	    8.00000 	    8.00000
   0.52500 	    8.00000 	    9.00000
   0.52500 	    9.00000 	    0.00000
   0.52500 	    9.00000 	    1.00000
   0.52500 	    9.00000 	    2.00000
   0.52500 	    9.00000 	    3.00000
   0.52500 	    9.00000 	    4.00000
   0.52500 	    9.00000 	    5.00000
   0.52500 	    9.00000 	    6.00000
   0.52500 	    9.00000 	    7.00000
   0.52500 	    9.00000 	    8.00000
   0.52500 	    9.00000 	    9.00000
   1.53079 	   -0.09347 	   -0.09347
   1.52328 	   -0.10105 	    0.94832
   1.52072 	   -0.10160 	    1.97278
   1.52432 	   -0.10475 	    2.97799
   1.52203 	   -0.10450 	    3.99159
   1.52203 	   -0.10450 	    5.00841
   1.52432 	   -0.10475 	    6.02201
   1.52072 	   -0.10160 	    7.02721
   1.52328 	   -0.10105 	    8.05168
   1.53079 	   -0.09347 	    9.09347
   1.52328 	    0.94832 	   -0.10105
   1.51332 	    0.92946 	    0.92946
   1.50368 	    0.93583 	    1.96638
   1.50628 	    0.93266 	    2.96522
   1.50507 	    0.93590 	    3.98622
   1.50507 	    0.93590 	    5.01378
   1.50628 	    0.93266 	    6.03477
   1.50368 	    0.93583 	    7.03361
   1.51332 	    0.92946 	    8.07054
   1.52328 	    0.94832 	    9.10104
   1.52072 	    1.97278 	   -0.10160
   1.50368 	    1.96638 	    0.93583
   1.50448 	    1.96815 	    1.96815
   1.50428 	    1.96867 	    2.95803
   1.50591 	    1.96943 	    3.98354
   1.50591 	    1.96943 	    5.01645
   1.50428 	    1.96867 	    6.04196
   1.50448 	    1.96815 	    7.03184
   1.50368 	    1.96638 	    8.06417
   1.52072 	    1.97278 	    9.10159
   1.52432 	    2.97799 	   -0.10474
   1.50628 	    2.96522 	    0.93266
   1.50428 	    2.95803 	    1.96867
   1.50259 	    2.95726 	    2.95726
   1.50407 	    2.95640 	    3.98346
   1.50407 	    2.95640 	    5.01654
   1.50259 	    2.95726 	    6.04273
   1.50428 	    2.95803 	    7.03133
   1.50628 	    2.96522 	    8.06734
   1.52432 	    2.97799 	    9.10474
   1.52203 	    3.99159 	   -0.10450
   1.50507 	    3.98621 	    0.93590
   1.50591 	    3.98354 	    1.96943
   1.50407 	    3.98346 	    2.95641
   1.50544 	    3.98319 	    3.98320
   1.50544 	    3.98319 	    5.01680
   1.50407 	    3.98346 	    6.04359
   1.50591 	    3.98354 	    7.03056
   1.50507 	    3.98621 	    8.06409
   1.52203 	    3.99159 	    9.10449
   1.52203 	    5.00841 	   -0.10450
   1.50507 	    5.01377 	    0.93590
   1.50591 	    5.01645 	    1.96944
   1.50407 	    5.01653 	    2.95641
   1.50544 	    5.01679 	    3.98320
   1.50544 	    5.01679 	    5.01680
   1.50407 	    5.01653 	    6.04359
   1.50591 	    5.01645 	    7.03056
   1.50507 	    5.01377 	    8.06409
   1.52203 	    5.00841 	    9.10449
   1.52432 	    6.02200 	   -0.10474
   1.50628 	    6.03477 	    0.93266
   1.50428 	    6.04196 	    1.96867
   1.50259 	    6.04273 	    2.95726
   1.50407 	    6.04358 	    3.98346
   1.50407 	    6.04358 	    5.01654
   1.50259 	    6.04273 	    6.04273
   1.50428 	    6.04196 	    7.03133
   1.50628 	    6.03477 	    8.06734
   1.52432 	    6.02200 	    9.10474
   1.52072 	    7.02721 	   -0.10159
   1.50367 	    7.03361 	    0.93583
   1.50448 	    7.03184 	    1.96816
   1.50428 	    7.03133 	    2.95803
   1.50591 	    7.03056 	    3.98354
   1.50591 	    7.03056 	    5.01645
   1.50428 	    7.03133 	    6.04196
   1.50448 	    7.03184 	    7.03184
   1.50367 	    7.03361 	    8.06417
   1.52072 	    7.02721 	    9.10159
   1.52328 	    8.05168 	   -0.10104
   1.51332 	    8.07054 	    0.92946
   1.50368 	    8.06417 	    1.96638
   1.50628 	    8.06734 	    2.96523
   1.50507 	    8.06409 	    3.98622
   1.50507 	    8.06409 	    5.01378
   1.50628 	    8.06734 	    6.03477
   1.50367 	    8.06416 	    7.03361
   1.51332 	    8.07053 	    8.07054
   1.52328 	    8.05167 	    9.10104
   1.53079 	    9.09347 	   -0.09346
   1.52328 	    9.10104 	    0.94832
   1.52072 	    9.10159 	    1.97278
   1.52432 	    9.10474 	    2.97799
   1.52203 	    9.10449 	    3.99159
   1.52203 	    9.10449 	    5.00841
   1.52432 	    9.10474 	    6.02200
   1.52072 	    9.10159 	    7.02721
   1.52328 	    9.10104 	    8.05167
   1.53079 	    9.09346 	    9.09346
   2.40830 	   -0.13665 	   -0.13665
   2.42929 	   -0.14366 	    0.89811
   2.43555 	   -0.14927 	    1.93291
   2.43514 	   -0.15471 	    2.95866
   2.43296 	   -0.15775 	    3.98645
   2.43296 	   -0.15775 	    5.01355
   2.43514 	   -0.15471 	    6.04134
   2.43555 	   -0.14927 	    7.06709
   2.42929 	   -0.14366 	    8.10188
   2.40831 	   -0.13665 	    9.13665
   2.42929 	    0.89811 	   -0.14366
   2.48022 	    0.88643 	    0.88643
   2.49569 	    0.87837 	    1.93956
   2.49517 	    0.87369 	    2.96352
   2.49165 	    0.86904 	    3.98868
   2.49165 	    0.86904 	    5.01132
   2.49517 	    0.87369 	    6.03648
   2.49569 	    0.87837 	    7.06044
   2.48022 	    0.88643 	    8.11356
   2.42929 	    0.89812 	    9.14366
   2.43555 	    1.93290 	   -0.14927
   2.49569 	    1.93956 	    0.87837
   2.49970 	    1.93871 	    1.93871
   2.49532 	    1.93688 	    2.96344
   2.48787 	    1.93148 	    3.98923
   2.48787 	    1.93148 	    5.01076
   2.49532 	    1.93688 	    6.03656
   2.49969 	    1.93871 	    7.06128
   2.49569 	    1.93956 	    8.12162
   2.43555 	    1.93291 	    9.14926
   2.43514 	    2.95866 	   -0.15471
   2.49517 	    2.96351 	    0.87369
   2.49532 	    2.96344 	    1.93688
   2.48941 	    2.96314 	    2.96315
   2.48173 	    2.96067 	    3.98910
   2.48173 	    2.96067 	    5.01090
   2.48941 	    2.96314 	    6.03685
   2.49532 	    2.96344 	    7.06311
   2.49517 	    2.96352 	    8.12630
   2.43514 	    2.95866 	    9.15470
   2.43296 	    3.98645 	   -0.15775
   2.49165 	    3.98868 	    0.86904
   2.48787 	    3.98923 	    1.93149
   2.48173 	    3.98910 	    2.96068
   2.47288 	    3.98830 	    3.98830
   2.47288 	    3.98830 	    5.01169
   2.48173 	    3.98910 	    6.03932
   2.48786 	    3.98923 	    7.06851
   2.49165 	    3.98868 	    8.13095
   2.43296 	    3.98645 	    9.15774
   2.43296 	    5.01354 	   -0.15775
   2.49165 	    5.01132 	    0.86904
   2.48787 	    5.01076 	    1.93149
   2.48173 	    5.01090 	    2.96068
   2.47288 	    5.01169 	    3.98830
   2.47288 	    5.01169 	    5.01169
   2.48173 	    5.01090 	    6.03932
   2.48786 	    5.01076 	    7.06851
   2.49165 	    5.01132 	    8.13095
   2.43296 	    5.01354 	    9.15774
   2.43514 	    6.04133 	   -0.15471
   2.49517 	    6.03648 	    0.87369
   2.49532 	    6.03656 	    1.93688
   2.48941 	    6.03685 	    2.96315
   2.48173 	    6.03932 	    3.98910
   2.48173 	    6.03932 	    5.01090
   2.48941 	    6.03685 	    6.03685
   2.49532 	    6.03656 	    7.06311
[...]
POINT_DATA 1000
SCALARS C float
LOOKUP_TABLE default
	      0.9973395
	      0.5695407
	      0.5660224
	      0.5896102
	      0.5615261
	      0.5615234
	      0.5896060
	      0.5660204
	      0.5695332
	      0.9973147
	      0.5695354
	      0.1162726
	      0.1148277
	      0.1434412
	      0.1213586
	      0.1213569
	      0.1434395
	      0.1148308
	      0.1162720
	      0.5695198
	      0.5660154
	      0.1148270
	      0.1164600
	      0.1578254
	      0.1338122
	      0.1338101
	      0.1578230
	      0.1164632
	      0.1148276
	      0.5659972
	      0.5896035
	      0.1434415
	      0.1578266
	      0.2113048
	      0.1859980
	      0.1859956
	      0.2113020
	      0.1578295
	      0.1434418
	      0.5895840
	      0.5615188
	      0.1213589
	      0.1338134
	      0.1859979
	      0.1571011
	      0.1570986
	      0.1859949
	      0.1338164
	      0.1213597
	      0.5614998
	      0.5615154
	      0.1213564
	      0.1338102
	      0.1859941
	      0.1570972
	      0.1570946
	      0.1859912
	      0.1338132
	      0.1213572
	      0.5614963
	      0.5895985
	      0.1434391
	      0.1578233
	      0.2113006
	      0.1859934
	      0.1859910
	      0.2112978
	      0.1578262
	      0.1434394
	      0.5895789
	      0.5660138
	      0.1148312
	      0.1164647
	      0.1578298
	      0.1338166
	      0.1338144
	      0.1578275
	      0.1164679
	      0.1148318
	      0.5659955
	      0.5695263
	      0.1162716
	      0.1148280
	      0.1434413
	      0.1213592
	      0.1213574
	      0.1434397
	      0.1148311
	      0.1162710
	      0.5695106
	      0.9973055
	      0.5695129
	      0.5659906
	      0.5895765
	      0.5614918
	      0.5614891
	      0.5895722
	      0.5659885
	      0.5695054
	      0.9972807
	      0.0785932
	      0.0606374
	      0.0604008
	      0.0659764
	      0.0666952
	      0.0666952
	      0.0659764
	      0.0604007
	      0.0606372
	      0.0785928
	      0.0606376
	      0.0638860
	      0.0640669
	      0.0758201
	      0.0750474
	      0.0750472
	      0.0758201
	      0.0640662
	      0.0638858
	      0.0606372
	      0.0604008
	      0.0640667
	      0.0529241
	      0.0635406
	      0.0607600
	      0.0607597
	      0.0635409
	      0.0529232
	      0.0640665
	      0.0604001
	      0.0659762
	      0.0758196
	      0.0635404
	      0.0744568
	      0.0712628
	      0.0712622
	      0.0744568
	      0.0635395
	      0.0758194
	      0.0659751
	      0.0666951
	      0.0750472
	      0.0607599
	      0.0712628
	      0.0674971
	      0.0674965
	      0.0712628
	      0.0607591
	      0.0750469
	      0.0666940
	      0.0666951
	      0.0750469
	      0.0607594
	      0.0712621
	      0.0674963
	      0.0674956
	      0.0712621
	      0.0607586
	      0.0750466
	      0.0666940
	      0.0659762
	      0.0758198
	      0.0635406
	      0.0744567
	      0.0712627
	      0.0712622
	      0.0744568
	      0.0635397
	      0.0758195
	      0.0659750
	      0.0604005
	      0.0640657
	      0.0529228
	      0.0635392
	      0.0607589
	      0.0607585
	      0.0635394
	      0.0529219
	      0.0640656
	      0.0603998
	      0.0606371
	      0.0638858
	      0.0640660
	      0.0758190
	      0.0750466
	      0.0750464
	      0.0758191
	      0.0640654
	      0.0638857
	      0.0606368
	      0.0785930
	      0.0606371
	      0.0603998
	      0.0659749
	      0.0666939
	      0.0666939
	      0.0659749
	      0.0603998
	      0.0606370
	      0.0785925
	      0.1805141
	      0.1324955
	      0.1204977
	      0.1196275
	      0.1191300
	      0.1191299
	      0.1196272
	      0.1204969
	      0.1324941
	      0.1805117
	      0.1324956
	      0.1046573
	      0.0986026
	      0.0987841
	      0.0981162
	      0.0981161
	      0.0987838
	      0.0986019
	      0.1046563
	      0.1324948
	      0.1204977
	      0.0986024
	      0.0979467
	      0.0941014
	      0.0990838
	      0.0990834
	      0.0941020
	      0.0979455
	      0.0986015
	      0.1204966
	      0.1196273
	      0.0987835
	      0.0941007
	      0.0885324
	      0.0955834
	      0.0955836
	      0.0885336
	      0.0940990
	      0.0987823
	      0.1196260
	      0.1191297
	      0.0981157
	      0.0990835
	      0.0955838
	      0.1038379
	      0.1038380
	      0.0955847
	      0.0990820
	      0.0981146
	      0.1191283
	      0.1191295
	      0.0981156
	      0.0990827
	      0.0955836
	      0.1038379
	      0.1038379
	      0.0955845
	      0.0990813
	      0.0981145
	      0.1191282
	      0.1196267
	      0.0987832
	      0.0941018
	      0.0885339
	      0.0955847
	      0.0955849
	      0.0885352
	      0.0941001
	      0.0987819
	      0.1196254
	      0.1204963
	      0.0986012
	      0.0979445
	      0.0940988
	      0.0990813
	      0.0990809
	      0.0940994
	      0.0979433
	      0.0986003
	      0.1204953
	      0.1324935
	      0.1046563
	      0.0986008
	      0.0987817
	      0.0981141
	      0.0981140
	      0.0987814
	      0.0986001
	      0.1046553
	      0.1324927
	      0.1805112
	      0.1324941
	      0.1204960
	      0.1196255
	      0.1191279
	      0.1191279
	      0.1196251
	      0.1204952
	      0.1324927
	      0.1805089
	      0.1718942
	      0.1356247
	      0.1287069
	      0.1282935
	      0.1284375
	      0.1284373
	      0.1282931
	      0.1287062
	      0.1356236
	      0.1718925
	      0.1356250
	      0.1094070
	      0.1054082
	      0.1038625
	      0.1033300
	      0.1033299
	      0.1038623
	      0.1054077
	      0.1094072
	      0.1356242
	      0.1287071
	      0.1054085
	      0.1258259
	      0.1215978
	      0.1316381
	      0.1316380
	      0.1215980
	      0.1258238
	      0.1054090
	      0.1287057
	      0.1282935
	      0.1038627
	      0.1215969
	      0.1079422
	      0.1182351
	      0.1182353
	      0.1079428
	      0.1215950
	      0.1038629
	      0.1282919
	      0.1284373
	      0.1033300
	      0.1316375
	      0.1182353
	      0.1304240
	      0.1304238
	      0.1182353
	      0.1316356
	      0.1033302
	      0.1284357
	      0.1284371
	      0.1033299
	      0.1316372
	      0.1182351
	      0.1304236
	      0.1304235
	      0.1182352
	      0.1316353
	      0.1033301
	      0.1284354
	      0.1282927
	      0.1038623
	      0.1215975
	      0.1079427
	      0.1182352
	      0.1182353
	      0.1079434
	      0.1215956
	      0.1038625
	      0.1282912
	      0.1287056
	      0.1054075
	      0.1258227
	      0.1215945
	      0.1316347
	      0.1316346
	      0.1215947
	      0.1258206
	      0.1054080
	      0.1287043
	      0.1356229
	      0.1094074
	      0.1054088
	      0.1038628
	      0.1033302
	      0.1033301
	      0.1038627
	      0.1054083
	      0.1094076
	      0.1356222
	      0.1718922
	      0.1356236
	      0.1287052
	      0.1282915
	      0.1284354
	      0.1284353
	      0.1282912
	      0.1287045
	      0.1356224
	      0.1718906
	      0.1401092
	      0.1180502
	      0.1162643
	      0.1183328
	      0.1187871
	      0.1187869
	      0.1183324
	      0.1162639
	      0.1180497
	      0.1401089
	      0.1180507
	      0.0946092
	      0.0947701
	      0.0954858
	      0.0945675
	      0.0945669
	      0.0954853
	      0.0947700
	      0.0946098
	      0.1180514
	      0.1162649
	      0.0947705
	      0.1096291
	      0.1110169
	      0.1186052
	      0.1186054
	      0.1110161
	      0.1096277
	      0.0947715
	      0.1162649
	      0.1183333
	      0.0954863
	      0.1110164
	      0.1023548
	      0.1090598
	      0.1090599
	      0.1023544
	      0.1110157
	      0.0954875
	      0.1183331
	      0.1187874
	      0.0945680
	      0.1186045
	      0.1090597
	      0.1178245
	      0.1178240
	      0.1090586
	      0.1186040
	      0.0945682
	      0.1187872
	      0.1187870
	      0.0945672
	      0.1186046
	      0.1090597
	      0.1178239
	      0.1178234
	      0.1090586
	      0.1186041
	      0.0945674
	      0.1187868
	      0.1183324
	      0.0954855
	      0.1110156
	      0.1023539
	      0.1090584
	      0.1090585
	      0.1023535
	      0.1110149
	      0.0954867
	      0.1183323
	      0.1162637
	      0.0947700
	      0.1096270
	      0.1110152
	      0.1186033
	      0.1186034
	      0.1110145
	      0.1096255
	      0.0947710
	      0.1162638
	      0.1180496
	      0.0946102
	      0.0947715
	      0.0954876
	      0.0945685
	      0.0945679
	      0.0954872
	      0.0947715
	      0.0946108
	      0.1180502
	      0.1401095
	      0.1180512
	      0.1162648
	      0.1183331
	      0.1187873
	      0.1187872
	      0.1183328
	      0.1162644
	      0.1180507
	      0.1401091
	      0.1400443
	      0.1180241
	      0.1162895
	      0.1183922
	      0.1188982
	      0.1188980
	      0.1183918
	      0.1162891
	      0.1180236
	      0.1400441
	      0.1180246
	      0.0947198
	      0.0952833
	      0.0959330
	      0.0952151
	      0.0952147
	      0.0959324
	      0.0952831
	      0.0947202
	      0.1180254
	      0.1162902
	      0.0952837
	      0.1098203
	      0.1110018
	      0.1194934
	      0.1194938
	      0.1110015
	      0.1098192
	      0.0952838
	      0.1162905
	      0.1183928
	      0.0959333
	      0.1110012
	      0.1028752
	      0.1110711
	      0.1110715
	      0.1028753
	      0.1110007
	      0.0959336
	      0.1183929
	      0.1188986
	      0.0952154
	      0.1194929
	      0.1110712
	      0.1218532
	      0.1218533
	      0.1110707
	      0.1194926
	      0.0952150
	      0.1188986
	      0.1188982
	      0.0952148
	      0.1194933
	      0.1110715
	      0.1218533
	      0.1218534
	      0.1110710
	      0.1194929
	      0.0952145
	      0.1188982
	      0.1183919
	      0.0959324
	      0.1110011
	      0.1028752
	      0.1110707
	      0.1110711
	      0.1028753
	      0.1110006
	      0.0959327
	      0.1183919
	      0.1162891
	      0.0952830
	      0.1098186
	      0.1110004
	      0.1194920
	      0.1194924
	      0.1110001
	      0.1098174
	      0.0952831
	      0.1162893
	      0.1180235
	      0.0947204
	      0.0952837
	      0.0959336
	      0.0952151
	      0.0952147
	      0.0959331
	      0.0952835
	      0.0947209
	      0.1180244
	      0.1400448
	      0.1180253
	      0.1162904
	      0.1183929
	      0.1188988
	      0.1188986
	      0.1183925
	      0.1162900
	      0.1180249
	      0.1400445
	      0.1719153
	      0.1356700
	      0.1287645
	      0.1283286
	      0.1284868
	      0.1284867
	      0.1283282
	      0.1287638
	      0.1356690
	      0.1719138
	      0.1356703
	      0.1094659
	      0.1055350
	      0.1039940
	      0.1036348
	      0.1036347
	      0.1039937
	      0.1055344
	      0.1094658
	      0.1356698
	      0.1287647
	      0.1055353
	      0.1243765
	      0.1207902
	      0.1304317
	      0.1304320
	      0.1207904
	      0.1243747
	      0.1055352
	      0.1287635
	      0.1283287
	      0.1039940
	      0.1207895
	      0.1083182
	      0.1182054
	      0.1182060
	      0.1083186
	      0.1207879
	      0.1039938
	      0.1283272
	      0.1284867
	      0.1036347
	      0.1304310
	      0.1182053
	      0.1302222
	      0.1302230
	      0.1182050
	      0.1304291
	      0.1036346
	      0.1284852
	      0.1284864
	      0.1036346
	      0.1304313
	      0.1182059
	      0.1302231
	      0.1302238
	      0.1182056
	      0.1304294
	      0.1036345
	      0.1284849
	      0.1283278
	      0.1039936
	      0.1207899
	      0.1083183
	      0.1182049
	      0.1182055
	      0.1083187
	      0.1207884
	      0.1039933
	      0.1283263
	      0.1287632
	      0.1055341
	      0.1243737
	      0.1207874
	      0.1304284
	      0.1304288
	      0.1207876
	      0.1243719
	      0.1055340
	      0.1287620
	      0.1356684
	      0.1094657
	      0.1055348
	      0.1039936
	      0.1036345
	      0.1036344
	      0.1039934
	      0.1055343
	      0.1094656
	      0.1356679
	      0.1719137
	      0.1356692
	      0.1287630
	      0.1283268
	      0.1284849
	      0.1284848
	      0.1283264
	      0.1287623
	      0.1356682
	      0.1719122
	      0.1809428
	      0.1327939
	      0.1207537
	      0.1198182
	      0.1192770
	      0.1192769
	      0.1198178
	      0.1207529
	      0.1327926
	      0.1809402
	      0.1327939
	      0.1047691
	      0.0983009
	      0.0984476
	      0.0978234
	      0.0978233
	      0.0984472
	      0.0983004
	      0.1047686
	      0.1327923
	      0.1207535
	      0.0983009
	      0.0973985
	      0.0951009
	      0.0980950
	      0.0980948
	      0.0951011
	      0.0973975
	      0.0983019
	      0.1207513
	      0.1198178
	      0.0984473
	      0.0951004
	      0.0908566
	      0.0950146
	      0.0950149
	      0.0908571
	      0.0950992
	      0.0984478
	      0.1198153
	      0.1192765
	      0.0978232
	      0.0980946
	      0.0950148
	      0.0999888
	      0.0999893
	      0.0950150
	      0.0980933
	      0.0978238
	      0.1192740
	      0.1192763
	      0.0978230
	      0.0980944
	      0.0950150
	      0.0999893
	      0.0999898
	      0.0950152
	      0.0980930
	      0.0978235
	      0.1192738
	      0.1198171
	      0.0984469
	      0.0951008
	      0.0908573
	      0.0950150
	      0.0950154
	      0.0908578
	      0.0950996
	      0.0984474
	      0.1198146
	      0.1207521
	      0.0983000
	      0.0973967
	      0.0950990
	      0.0980928
	      0.0980927
	      0.0950991
	      0.0973957
	      0.0983010
	      0.1207499
	      0.1327917
	      0.1047689
	      0.0983016
	      0.0984475
	      0.0978235
	      0.0978233
	      0.0984472
	      0.0983010
	      0.1047684
	      0.1327900
	      0.1809394
	      0.1327914
	      0.1207505
	      0.1198147
	      0.1192734
	      0.1192733
	      0.1198142
	      0.1207498
	      0.1327901
	      0.1809368
	      0.0791895
	      0.0611084
	      0.0609072
	      0.0665161
	      0.0672223
	      0.0672223
	      0.0665160
	      0.0609071
	      0.0611083
	      0.0791890
	      0.0611086
	      0.0640181
	      0.0640391
	      0.0759233
	      0.0752458
	      0.0752456
	      0.0759229
	      0.0640388
	      0.0640177
	      0.0611085
	      0.0609072
	      0.0640388
	      0.0524896
	      0.0632195
	      0.0608257
	      0.0608252
	      0.0632189
	      0.0524893
	      0.0640381
	      0.0609068
	      0.0665160
	      0.0759229
	      0.0632196
	      0.0750522
	      0.0729738
	      0.0729731
	      0.0750514
	      0.0632194
	      0.0759219
	      0.0665152
	      0.0672222
	      0.0752455
	      0.0608257
	      0.0729737
	      0.0708053
	      0.0708046
	      0.0729730
	      0.0608258
	      0.0752446
	      0.0672213
	      0.0672222
	      0.0752452
	      0.0608250
	      0.0729728
	      0.0708043
	      0.0708036
	      0.0729721
	      0.0608250
	      0.0752443
	      0.0672214
	      0.0665159
	      0.0759223
	      0.0632186
	      0.0750510
	      0.0729727
	      0.0729720
	      0.0750503
	      0.0632184
	      0.0759214
	      0.0665150
	      0.0609070
	      0.0640383
	      0.0524890
	      0.0632191
	      0.0608256
	      0.0608251
	      0.0632184
	      0.0524887
	      0.0640375
	      0.0609066
	      0.0611083
	      0.0640177
	      0.0640375
	      0.0759214
	      0.0752442
	      0.0752440
	      0.0759209
	      0.0640373
	      0.0640173
	      0.0611082
	      0.0791894
	      0.0611084
	      0.0609067
	      0.0665150
	      0.0672213
	      0.0672213
	      0.0665150
	      0.0609066
	      0.0611084
	      0.0791890
	      0.9973193
	      0.5687815
	      0.5643847
	      0.5885256
	      0.5606285
	      0.5606265
	      0.5885216
	      0.5643812
	      0.5687740
	      0.9972948
	      0.5687764
	      0.1177011
	      0.1152610
	      0.1438727
	      0.1220883
	      0.1220875
	      0.1438720
	      0.1152627
	      0.1177013
	      0.5687609
	      0.5643779
	      0.1152603
	      0.1161663
	      0.1574589
	      0.1338302
	      0.1338290
	      0.1574576
	      0.1161681
	      0.1152609
	      0.5643599
	      0.5885188
	      0.1438727
	      0.1574598
	      0.2109510
	      0.1861850
	      0.1861835
	      0.2109492
	      0.1574615
	      0.1438730
	      0.5884994
	      0.5606212
	      0.1220884
	      0.1338311
	      0.1861848
	      0.1580383
	      0.1580367
	      0.1861828
	      0.1338332
	      0.1220892
	      0.5606022
	      0.5606185
	      0.1220872
	      0.1338292
	      0.1861823
	      0.1580356
	      0.1580340
	      0.1861804
	      0.1338313
	      0.1220880
	      0.5605996
	      0.5885141
	      0.1438717
	      0.1574578
	      0.2109481
	      0.1861817
	      0.1861802
	      0.2109463
	      0.1574596
	      0.1438719
	      0.5884947
	      0.5643745
	      0.1152628
	      0.1161691
	      0.1574618
	      0.1338334
	      0.1338322
	      0.1574605
	      0.1161709
	      0.1152633
	      0.5643566
	      0.5687672
	      0.1177011
	      0.1152609
	      0.1438726
	      0.1220889
	      0.1220881
	      0.1438720
	      0.1152627
	      0.1177013
	      0.5687517
	      0.9972852
	      0.5687541
	      0.5643532
	      0.5884919
	      0.5605943
	      0.5605923
	      0.5884879
	      0.5643497
	      0.5687466
	      0.9972607
