# vtk DataFile Version 3.0
test_file
ASCII
DATASET POLYDATA
POINTS 1000 float
   1.10000 	   -0.00000 	    0.00000
   1.10000 	   -0.00000 	    1.00000
   1.10000 	    0.00000 	    2.00000
   1.10000 	    0.00000 	    3.00000
   1.10000 	    0.00000 	    4.00000
   1.10000 	    0.00000 	    5.00000
   1.10000 	    0.00000 	    6.00000
   1.10000 	    0.00000 	    7.00000
   1.10000 	   -0.00000 	    8.00000
   1.10000 	    0.00000 	    9.00000
   1.10000 	    1.00000 	    0.00000
   1.10000 	    1.00000 	    1.00000
   1.10000 	    1.00000 	    2.00000
   1.10000 	    1.00000 	    3.00000
   1.10000 	    1.00000 	    4.00000
   1.10000 	    1.00000 	    5.00000
   1.10000 	    1.00000 	    6.00000
   1.10000 	    1.00000 	    7.00000
   1.10000 	    1.00000 	    8.00000
   1.10000 	    1.00000 	    9.00000
   1.10000 	    2.00000 	    0.00000
   1.10000 	    2.00000 	    1.00000
   1.10000 	    2.00000 	    2.00000
   1.10000 	    2.00000 	    3.00000
   1.10000 	    2.00000 	    4.00000
   1.10000 	    2.00000 	    5.00000
   1.10000 	    2.00000 	    6.00000
   1.10000 	    2.00000 	    7.00000
   1.10000 	    2.00000 	    8.00000
   1.10000 	    2.00000 	    9.00000
   1.10000 	    3.00000 	    0.00000
   1.10000 	    3.00000 	    1.00000
   1.10000 	    3.00000 	    2.00000
   1.10000 	    3.00000 	    3.00000
   1.10000 	    3.00000 	    4.00000
   1.10000 	    3.00000 	    5.00000
   1.10000 	    3.00000 	    6.00000
   1.10000 	    3.00000 	    7.00000
   1.10000 	    3.00000 	    8.00000
   1.10000 	    3.00000 	    9.00000
   1.10000 	    4.00000 	    0.00000
   1.10000 	    4.00000 	    1.00000
   1.10000 	    4.00000 	    2.00000
   1.10000 	    4.00000 	    3.00000
   1.10000 	    4.00000 	    4.00000
   1.10000 	    4.00000 	    5.00000
   1.10000 	    4.00000 	    6.00000
   1.10000 	    4.00000 	    7.00000
   1.10000 	    4.00000 	    8.00000
   1.10000 	    4.00000 	    9.00000
   1.10000 	    5.00000 	    0.00000
   1.10000 	    5.00000 	    1.00000
   1.10000 	    5.00000 	    2.00000
   1.10000 	    5.00000 	    3.00000
   1.10000 	    5.00000 	    4.00000
   1.10000 	    5.00000 	    5.00000
   1.10000 	    5.00000 	    6.00000
   1.10000 	    5.00000 	    7.00000
   1.10000 	    5.00000 	    8.00000
   1.10000 	    5.00000 	    9.00000
   1.10000 	    6.00000 	    0.00000
   1.10000 	    6.00000 	    1.00000
   1.10000 	    6.00000 	    2.00000
   1.10000 	    6.00000 	    3.00000
   1.10000 	    6.00000 	    4.00000
   1.10000 	    6.00000 	    5.00000
   1.10000 	    6.00000 	    6.00000
   1.10000 	    6.00000 	    7.00000
   1.10000 	    6.00000 	    8.00000
   1.10000 	    6.00000 	    9.00000
   1.10000 	    7.00000 	    0.00000
   1.10000 	    7.00000 	    1.00000
   1.10000 	    7.00000 	    2.00000
   1.10000 	    7.00000 	    3.00000
   1.10000 	    7.00000 	    4.00000
   1.10000 	    7.00000 	    5.00000
   1.10000 	    7.00000 	    6.00000
   1.10000 	    7.00000 	    7.00000
   1.10000 	    7.00000 	    8.00000
   1.10000 	    7.00000 	    9.00000
   1.10000 	    8.00000 	    0.00000
   1.10000 	    8.00000 	    1.00000
   1.10000 	    8.00000 	    2.00000
   1.10000 	    8.00000 	    3.00000
   1.10000 	    8.00000 	    4.00000
   1.10000 	    8.00000 	    5.00000
   1.10000 	    8.00000 	    6.00000
   1.10000 	    8.00000 	    7.00000
   1.10000 	    8.00000 	    8.00000
   1.10000 	    8.00000 	    9.00000
   1.10000 	    9.00000 	    0.00000
   1.10000 	    9.00000 	    1.00000
   1.10000 	    9.00000 	    2.00000
   1.10000 	    9.00000 	    3.00000
   1.10000 	    9.00000 	    4.00000
   1.10000 	    9.00000 	    5.00000
   1.10000 	    9.00000 	    6.00000
   1.10000 	    9.00000 	    7.00000
   1.10000 	    9.00000 	    8.00000
   1.10000 	    9.00000 	    9.00000
   2.11962 	   -0.21321 	   -0.21321
   2.10573 	   -0.23005 	    0.88927
   2.10417 	   -0.22961 	    1.93948
   2.11222 	   -0.23632 	    2.95207
   2.10624 	   -0.23542 	    3.98209
   2.10624 	   -0.23542 	    5.01790
   2.11222 	   -0.23632 	    6.04793
   2.10417 	   -0.22961 	    7.06052
   2.10573 	   -0.23005 	    8.11072
   2.11962 	   -0.21321 	    9.21321
   2.10573 	    0.88927 	   -0.23005
   2.06562 	    0.85231 	    0.85231
   2.05451 	    0.86659 	    1.92069
   2.05795 	    0.86201 	    2.92739
   2.05626 	    0.86626 	    3.97229
   2.05626 	    0.86626 	    5.02770
   2.05795 	    0.86201 	    6.07260
   2.05451 	    0.86659 	    7.07930
   2.06562 	    0.85231 	    8.14768
   2.10573 	    0.88928 	    9.23005
   2.10417 	    1.93948 	   -0.22961
   2.05451 	    1.92069 	    0.86659
   2.06433 	    1.92530 	    1.92530
   2.06364 	    1.92560 	    2.91520
   2.06596 	    1.92622 	    3.96731
   2.06596 	    1.92622 	    5.03268
   2.06364 	    1.92560 	    6.08479
   2.06433 	    1.92530 	    7.07469
   2.05451 	    1.92069 	    8.13340
   2.10417 	    1.93948 	    9.22960
   2.11222 	    2.95207 	   -0.23632
   2.05795 	    2.92738 	    0.86201
   2.06364 	    2.91519 	    1.92560
   2.06017 	    2.91323 	    2.91324
   2.06245 	    2.91241 	    3.96690
   2.06245 	    2.91241 	    5.03309
   2.06017 	    2.91323 	    6.08675
   2.06364 	    2.91519 	    7.07439
   2.05795 	    2.92738 	    8.13798
   2.11222 	    2.95207 	    9.23631
   2.10624 	    3.98209 	   -0.23542
   2.05626 	    3.97228 	    0.86627
   2.06596 	    3.96730 	    1.92622
   2.06245 	    3.96690 	    2.91241
   2.06450 	    3.96686 	    3.96686
   2.06450 	    3.96686 	    5.03313
   2.06245 	    3.96690 	    6.08757
   2.06596 	    3.96730 	    7.07377
   2.05626 	    3.97228 	    8.13372
   2.10624 	    3.98209 	    9.23541
   2.10624 	    5.01790 	   -0.23542
   2.05626 	    5.02770 	    0.86627
   2.06596 	    5.03268 	    1.92622
   2.06245 	    5.03308 	    2.91241
   2.06450 	    5.03312 	    3.96686
   2.06450 	    5.03312 	    5.03313
   2.06245 	    5.03308 	    6.08757
   2.06596 	    5.03268 	    7.07377
   2.05626 	    5.02770 	    8.13372
   2.10624 	    5.01790 	    9.23541
   2.11222 	    6.04792 	   -0.23632
   2.05795 	    6.07260 	    0.86201
   2.06364 	    6.08479 	    1.92561
   2.06017 	    6.08675 	    2.91324
   2.06245 	    6.08757 	    3.96690
   2.06245 	    6.08757 	    5.03309
   2.06017 	    6.08675 	    6.08675
   2.06364 	    6.08479 	    7.07439
   2.05795 	    6.07260 	    8.13798
   2.11222 	    6.04792 	    9.23631
   2.10417 	    7.06052 	   -0.22961
   2.05451 	    7.07930 	    0.86659
   2.06433 	    7.07469 	    1.92530
   2.06364 	    7.07439 	    2.91520
   2.06596 	    7.07377 	    3.96731
   2.06596 	    7.07377 	    5.03268
   2.06364 	    7.07439 	    6.08479
   2.06433 	    7.07469 	    7.07469
   2.05451 	    7.07930 	    8.13340
   2.10417 	    7.06051 	    9.22960
   2.10573 	    8.11072 	   -0.23005
   2.06561 	    8.14768 	    0.85231
   2.05451 	    8.13340 	    1.92069
   2.05795 	    8.13798 	    2.92739
   2.05626 	    8.13372 	    3.97229
   2.05626 	    8.13372 	    5.02770
   2.05795 	    8.13798 	    6.07260
   2.05451 	    8.13340 	    7.07930
   2.06561 	    8.14768 	    8.14768
   2.10573 	    8.11072 	    9.23004
   2.11962 	    9.21321 	   -0.21320
   2.10573 	    9.23004 	    0.88928
   2.10417 	    9.22960 	    1.93948
   2.11222 	    9.23631 	    2.95207
   2.10624 	    9.23541 	    3.98209
   2.10624 	    9.23541 	    5.01790
   2.11222 	    9.23631 	    6.04792
   2.10417 	    9.22960 	    7.06051
   2.10573 	    9.23004 	    8.11072
   2.11962 	    9.21320 	    9.21320
   2.84834 	   -0.30397 	   -0.30397
   2.89563 	   -0.31993 	    0.77492
   2.91186 	   -0.33078 	    1.85124
   2.91233 	   -0.34156 	    2.90890
   2.90761 	   -0.34789 	    3.97020
   2.90761 	   -0.34789 	    5.02979
   2.91233 	   -0.34156 	    6.09109
   2.91186 	   -0.33078 	    7.14876
   2.89563 	   -0.31993 	    8.22508
   2.84834 	   -0.30396 	    9.30396
   2.89563 	    0.77491 	   -0.31993
   2.99141 	    0.74848 	    0.74849
   3.02446 	    0.73581 	    1.85884
   3.02432 	    0.72680 	    2.91611
   3.01807 	    0.71645 	    3.97312
   3.01807 	    0.71645 	    5.02687
   3.02432 	    0.72680 	    6.08388
   3.02445 	    0.73582 	    7.14115
   2.99141 	    0.74849 	    8.25150
   2.89564 	    0.77492 	    9.31992
   2.91186 	    1.85123 	   -0.33078
   3.02446 	    1.85884 	    0.73582
   3.04462 	    1.86194 	    1.86195
   3.03555 	    1.85758 	    2.91639
   3.01996 	    1.84565 	    3.97148
   3.01996 	    1.84565 	    5.02850
   3.03555 	    1.85758 	    6.08360
   3.04462 	    1.86195 	    7.13804
   3.02446 	    1.85884 	    8.26417
   2.91186 	    1.85124 	    9.33076
   2.91233 	    2.90890 	   -0.34156
   3.02432 	    2.91610 	    0.72681
   3.03555 	    2.91639 	    1.85759
   3.02310 	    2.91429 	    2.91429
   3.00660 	    2.90915 	    3.96990
   3.00660 	    2.90915 	    5.03008
   3.02310 	    2.91429 	    6.08570
   3.03554 	    2.91639 	    7.14240
   3.02432 	    2.91611 	    8.27318
   2.91233 	    2.90890 	    9.34154
   2.90762 	    3.97020 	   -0.34788
   3.01807 	    3.97311 	    0.71646
   3.01996 	    3.97148 	    1.84566
   3.00660 	    3.96990 	    2.90915
   2.98750 	    3.96833 	    3.96833
   2.98750 	    3.96833 	    5.03165
   3.00660 	    3.96990 	    6.09084
   3.01996 	    3.97148 	    7.15433
   3.01807 	    3.97311 	    8.28353
   2.90762 	    3.97020 	    9.34787
   2.90762 	    5.02979 	   -0.34788
   3.01807 	    5.02687 	    0.71646
   3.01996 	    5.02850 	    1.84566
   3.00660 	    5.03008 	    2.90915
   2.98750 	    5.03165 	    3.96833
   2.98750 	    5.03165 	    5.03165
   3.00660 	    5.03008 	    6.09084
   3.01996 	    5.02850 	    7.15433
   3.01807 	    5.02687 	    8.28353
   2.90762 	    5.02979 	    9.34787
   2.91233 	    6.09108 	   -0.34155
   3.02432 	    6.08388 	    0.72681
   3.03554 	    6.08360 	    1.85759
   3.02310 	    6.08569 	    2.91429
   3.00660 	    6.09083 	    3.96990
   3.00660 	    6.09084 	    5.03008
   3.02310 	    6.08569 	    6.08570
   3.03554 	    6.08359 	    7.14240
[...]
POINT_DATA 1000
SCALARS C float
LOOKUP_TABLE default
	      1.5251408
	      0.8562771
	      0.8691524
	      0.9057211
	      0.8589632
	      0.8589593
	      0.9057148
	      0.8691516
	      0.8562704
	      1.5251082
	      0.8562695
	      0.1141434
	      0.1288251
	      0.1834082
	      0.1436779
	      0.1436754
	      0.1834055
	      0.1288304
	      0.1141451
	      0.8562488
	      0.8691429
	      0.1288249
	      0.1481861
	      0.2268108
	      0.1818334
	      0.1818303
	      0.2268069
	      0.1481917
	      0.1288286
	      0.8691179
	      0.9057124
	      0.1834097
	      0.2268131
	      0.3259472
	      0.2778727
	      0.2778692
	      0.3259423
	      0.2268181
	      0.1834132
	      0.9056855
	      0.8589536
	      0.1436791
	      0.1818354
	      0.2778723
	      0.2240968
	      0.2240933
	      0.2778676
	      0.1818406
	      0.1436830
	      0.8589273
	      0.8589487
	      0.1436755
	      0.1818308
	      0.2778668
	      0.2240912
	      0.2240878
	      0.2778621
	      0.1818360
	      0.1436794
	      0.8589225
	      0.9057050
	      0.1834057
	      0.2268076
	      0.3259399
	      0.2778652
	      0.2778617
	      0.3259350
	      0.2268125
	      0.1834091
	      0.9056781
	      0.8691431
	      0.1288319
	      0.1481945
	      0.2268187
	      0.1818411
	      0.1818380
	      0.2268148
	      0.1482000
	      0.1288356
	      0.8691180
	      0.8562615
	      0.1141454
	      0.1288301
	      0.1834133
	      0.1436831
	      0.1436806
	      0.1834106
	      0.1288354
	      0.1141471
	      0.8562408
	      1.5250970
	      0.8562399
	      0.8691094
	      0.9056757
	      0.8589168
	      0.8589129
	      0.9056694
	      0.8691085
	      0.8562333
	      1.5250643
	      0.1203359
	      0.0920835
	      0.0922398
	      0.1010818
	      0.1016697
	      0.1016697
	      0.1010817
	      0.0922395
	      0.0920828
	      0.1203352
	      0.0920837
	      0.1024564
	      0.1037977
	      0.1213309
	      0.1206173
	      0.1206171
	      0.1213312
	      0.1037970
	      0.1024557
	      0.0920823
	      0.0922395
	      0.1037973
	      0.0855049
	      0.1023112
	      0.0993081
	      0.0993081
	      0.1023124
	      0.0855039
	      0.1037967
	      0.0922377
	      0.1010812
	      0.1213302
	      0.1023108
	      0.1212449
	      0.1187659
	      0.1187658
	      0.1212461
	      0.1023098
	      0.1213294
	      0.1010789
	      0.1016692
	      0.1206168
	      0.0993080
	      0.1187661
	      0.1160196
	      0.1160195
	      0.1187674
	      0.0993071
	      0.1206160
	      0.1016670
	      0.1016692
	      0.1206166
	      0.0993078
	      0.1187659
	      0.1160193
	      0.1160192
	      0.1187671
	      0.0993069
	      0.1206158
	      0.1016670
	      0.1010812
	      0.1213306
	      0.1023123
	      0.1212464
	      0.1187675
	      0.1187674
	      0.1212476
	      0.1023112
	      0.1213299
	      0.1010789
	      0.0922389
	      0.1037963
	      0.0855033
	      0.1023097
	      0.0993068
	      0.0993068
	      0.1023109
	      0.0855023
	      0.1037957
	      0.0922371
	      0.0920824
	      0.1024556
	      0.1037959
	      0.1213289
	      0.1206155
	      0.1206153
	      0.1213292
	      0.1037952
	      0.1024549
	      0.0920810
	      0.1203353
	      0.0920819
	      0.0922371
	      0.1010783
	      0.1016665
	      0.1016665
	      0.1010783
	      0.0922368
	      0.0920812
	      0.1203346
	      0.2591399
	      0.1922325
	      0.1748701
	      0.1730696
	      0.1717090
	      0.1717089
	      0.1730692
	      0.1748692
	      0.1922309
	      0.2591379
	      0.1922326
	      0.1600962
	      0.1524021
	      0.1519228
	      0.1512638
	      0.1512638
	      0.1519225
	      0.1524010
	      0.1600946
	      0.1922326
	      0.1748702
	      0.1524016
	      0.1373392
	      0.1288354
	      0.1375603
	      0.1375581
	      0.1288355
	      0.1373380
	      0.1523986
	      0.1748702
	      0.1730696
	      0.1519219
	      0.1288341
	      0.1186784
	      0.1283846
	      0.1283833
	      0.1186794
	      0.1288326
	      0.1519185
	      0.1730694
	      0.1717090
	      0.1512627
	      0.1375598
	      0.1283851
	      0.1387878
	      0.1387853
	      0.1283854
	      0.1375590
	      0.1512588
	      0.1717088
	      0.1717088
	      0.1512627
	      0.1375574
	      0.1283830
	      0.1387844
	      0.1387819
	      0.1283833
	      0.1375567
	      0.1512588
	      0.1717086
	      0.1730689
	      0.1519212
	      0.1288350
	      0.1186794
	      0.1283851
	      0.1283838
	      0.1186804
	      0.1288334
	      0.1519178
	      0.1730688
	      0.1748688
	      0.1523998
	      0.1373368
	      0.1288321
	      0.1375583
	      0.1375561
	      0.1288322
	      0.1373356
	      0.1523968
	      0.1748688
	      0.1922304
	      0.1600942
	      0.1523974
	      0.1519172
	      0.1512577
	      0.1512577
	      0.1519168
	      0.1523963
	      0.1600925
	      0.1922304
	      0.2591379
	      0.1922321
	      0.1748698
	      0.1730691
	      0.1717087
	      0.1717086
	      0.1730688
	      0.1748689
	      0.1922305
	      0.2591358
	      0.2412098
	      0.1940169
	      0.1850710
	      0.1843360
	      0.1842501
	      0.1842500
	      0.1843356
	      0.1850701
	      0.1940156
	      0.2412085
	      0.1940174
	      0.1611084
	      0.1568053
	      0.1534211
	      0.1522831
	      0.1522829
	      0.1534209
	      0.1568046
	      0.1611089
	      0.1940175
	      0.1850715
	      0.1568058
	      0.2017532
	      0.1938231
	      0.2163567
	      0.2163569
	      0.1938239
	      0.2017502
	      0.1568068
	      0.1850710
	      0.1843364
	      0.1534215
	      0.1938217
	      0.1671608
	      0.1893054
	      0.1893058
	      0.1671621
	      0.1938190
	      0.1534224
	      0.1843357
	      0.1842504
	      0.1522835
	      0.2163557
	      0.1893059
	      0.2152516
	      0.2152512
	      0.1893066
	      0.2163535
	      0.1522840
	      0.1842496
	      0.1842501
	      0.1522831
	      0.2163558
	      0.1893058
	      0.2152510
	      0.2152505
	      0.1893066
	      0.2163536
	      0.1522836
	      0.1842493
	      0.1843354
	      0.1534208
	      0.1938231
	      0.1671620
	      0.1893067
	      0.1893070
	      0.1671633
	      0.1938204
	      0.1534217
	      0.1843348
	      0.1850698
	      0.1568046
	      0.2017490
	      0.1938182
	      0.2163524
	      0.2163526
	      0.1938190
	      0.2017460
	      0.1568056
	      0.1850693
	      0.1940151
	      0.1611093
	      0.1568067
	      0.1534223
	      0.1522842
	      0.1522840
	      0.1534221
	      0.1568061
	      0.1611097
	      0.1940151
	      0.2412084
	      0.1940170
	      0.1850706
	      0.1843356
	      0.1842496
	      0.1842495
	      0.1843352
	      0.1850698
	      0.1940157
	      0.2412071
	      0.1885935
	      0.1653659
	      0.1642802
	      0.1674773
	      0.1682286
	      0.1682285
	      0.1674770
	      0.1642796
	      0.1653652
	      0.1885934
	      0.1653667
	      0.1348034
	      0.1356979
	      0.1353559
	      0.1337723
	      0.1337719
	      0.1353555
	      0.1356974
	      0.1348048
	      0.1653679
	      0.1642811
	      0.1356988
	      0.1822596
	      0.1762696
	      0.1926959
	      0.1926956
	      0.1762695
	      0.1822573
	      0.1357002
	      0.1642816
	      0.1674782
	      0.1353569
	      0.1762681
	      0.1456176
	      0.1621093
	      0.1621085
	      0.1456175
	      0.1762668
	      0.1353583
	      0.1674783
	      0.1682293
	      0.1337730
	      0.1926949
	      0.1621093
	      0.1862852
	      0.1862854
	      0.1621088
	      0.1926925
	      0.1337743
	      0.1682292
	      0.1682289
	      0.1337724
	      0.1926946
	      0.1621084
	      0.1862850
	      0.1862852
	      0.1621080
	      0.1926922
	      0.1337738
	      0.1682288
	      0.1674772
	      0.1353559
	      0.1762685
	      0.1456173
	      0.1621087
	      0.1621079
	      0.1456172
	      0.1762672
	      0.1353573
	      0.1674773
	      0.1642797
	      0.1356976
	      0.1822559
	      0.1762658
	      0.1926915
	      0.1926912
	      0.1762657
	      0.1822536
	      0.1356991
	      0.1642801
	      0.1653652
	      0.1348052
	      0.1357004
	      0.1353587
	      0.1337748
	      0.1337745
	      0.1353583
	      0.1357000
	      0.1348067
	      0.1653664
	      0.1885942
	      0.1653679
	      0.1642816
	      0.1674785
	      0.1682296
	      0.1682295
	      0.1674782
	      0.1642811
	      0.1653672
	      0.1885941
	      0.1886261
	      0.1653808
	      0.1642791
	      0.1674629
	      0.1682013
	      0.1682011
	      0.1674625
	      0.1642786
	      0.1653803
	      0.1886261
	      0.1653816
	      0.1347955
	      0.1355092
	      0.1350182
	      0.1334352
	      0.1334349
	      0.1350176
	      0.1355087
	      0.1347967
	      0.1653830
	      0.1642801
	      0.1355101
	      0.1829812
	      0.1769623
	      0.1935160
	      0.1935170
	      0.1769626
	      0.1829789
	      0.1355109
	      0.1642805
	      0.1674638
	      0.1350191
	      0.1769608
	      0.1461192
	      0.1623987
	      0.1623990
	      0.1461193
	      0.1769594
	      0.1350200
	      0.1674639
	      0.1682020
	      0.1334358
	      0.1935149
	      0.1623986
	      0.1861232
	      0.1861240
	      0.1623983
	      0.1935131
	      0.1334364
	      0.1682019
	      0.1682016
	      0.1334353
	      0.1935163
	      0.1623992
	      0.1861242
	      0.1861250
	      0.1623990
	      0.1935145
	      0.1334359
	      0.1682015
	      0.1674628
	      0.1350178
	      0.1769616
	      0.1461193
	      0.1623985
	      0.1623989
	      0.1461193
	      0.1769601
	      0.1350188
	      0.1674628
	      0.1642787
	      0.1355088
	      0.1829778
	      0.1769584
	      0.1935124
	      0.1935134
	      0.1769586
	      0.1829755
	      0.1355097
	      0.1642791
	      0.1653803
	      0.1347968
	      0.1355111
	      0.1350203
	      0.1334368
	      0.1334365
	      0.1350197
	      0.1355106
	      0.1347980
	      0.1653816
	      0.1886271
	      0.1653829
	      0.1642806
	      0.1674641
	      0.1682023
	      0.1682021
	      0.1674637
	      0.1642801
	      0.1653824
	      0.1886271
	      0.2413657
	      0.1941371
	      0.1852042
	      0.1844944
	      0.1844011
	      0.1844009
	      0.1844939
	      0.1852034
	      0.1941361
	      0.2413646
	      0.1941377
	      0.1611559
	      0.1566911
	      0.1533100
	      0.1521355
	      0.1521351
	      0.1533095
	      0.1566904
	      0.1611560
	      0.1941378
	      0.1852047
	      0.1566916
	      0.2019699
	      0.1938717
	      0.2161028
	      0.2161035
	      0.1938720
	      0.2019679
	      0.1566928
	      0.1852039
	      0.1844948
	      0.1533105
	      0.1938707
	      0.1670157
	      0.1888642
	      0.1888653
	      0.1670155
	      0.1938683
	      0.1533119
	      0.1844936
	      0.1844013
	      0.1521358
	      0.2161018
	      0.1888642
	      0.2145325
	      0.2145326
	      0.1888635
	      0.2161003
	      0.1521367
	      0.1844000
	      0.1844009
	      0.1521353
	      0.2161024
	      0.1888650
	      0.2145328
	      0.2145330
	      0.1888643
	      0.2161008
	      0.1521362
	      0.1843996
	      0.1844937
	      0.1533094
	      0.1938714
	      0.1670150
	      0.1888633
	      0.1888643
	      0.1670148
	      0.1938690
	      0.1533108
	      0.1844925
	      0.1852030
	      0.1566903
	      0.2019666
	      0.1938677
	      0.2160992
	      0.2160999
	      0.1938679
	      0.2019646
	      0.1566914
	      0.1852022
	      0.1941356
	      0.1611563
	      0.1566926
	      0.1533118
	      0.1521369
	      0.1521365
	      0.1533113
	      0.1566919
	      0.1611564
	      0.1941357
	      0.2413647
	      0.1941373
	      0.1852035
	      0.1844934
	      0.1844000
	      0.1843998
	      0.1844929
	      0.1852027
	      0.1941363
	      0.2413635
	      0.2595319
	      0.1924971
	      0.1751629
	      0.1734168
	      0.1720760
	      0.1720759
	      0.1734163
	      0.1751621
	      0.1924957
	      0.2595294
	      0.1924973
	      0.1602131
	      0.1525909
	      0.1523159
	      0.1516418
	      0.1516417
	      0.1523154
	      0.1525901
	      0.1602122
	      0.1924959
	      0.1751629
	      0.1525908
	      0.1361625
	      0.1281060
	      0.1371443
	      0.1371424
	      0.1281057
	      0.1361627
	      0.1525901
	      0.1751609
	      0.1734165
	      0.1523153
	      0.1281052
	      0.1184400
	      0.1287755
	      0.1287745
	      0.1184400
	      0.1281051
	      0.1523140
	      0.1734143
	      0.1720756
	      0.1516410
	      0.1371443
	      0.1287760
	      0.1398804
	      0.1398786
	      0.1287755
	      0.1371447
	      0.1516395
	      0.1720734
	      0.1720754
	      0.1516410
	      0.1371420
	      0.1287742
	      0.1398780
	      0.1398762
	      0.1287737
	      0.1371424
	      0.1516395
	      0.1720732
	      0.1734157
	      0.1523145
	      0.1281057
	      0.1184400
	      0.1287752
	      0.1287742
	      0.1184400
	      0.1281055
	      0.1523132
	      0.1734135
	      0.1751614
	      0.1525894
	      0.1361617
	      0.1281051
	      0.1371443
	      0.1371424
	      0.1281047
	      0.1361619
	      0.1525887
	      0.1751593
	      0.1924948
	      0.1602123
	      0.1525894
	      0.1523131
	      0.1516388
	      0.1516388
	      0.1523126
	      0.1525886
	      0.1602115
	      0.1924933
	      0.2595288
	      0.1924950
	      0.1751601
	      0.1734137
	      0.1720729
	      0.1720727
	      0.1734132
	      0.1751593
	      0.1924935
	      0.2595262
	      0.1207528
	      0.0923017
	      0.0924395
	      0.1012839
	      0.1018631
	      0.1018631
	      0.1012837
	      0.0924393
	      0.0923014
	      0.1207518
	      0.0923019
	      0.1023920
	      0.1038090
	      0.1213222
	      0.1205175
	      0.1205172
	      0.1213216
	      0.1038086
	      0.1023910
	      0.0923015
	      0.0924394
	      0.1038085
	      0.0857325
	      0.1026042
	      0.0993155
	      0.0993152
	      0.1026036
	      0.0857320
	      0.1038070
	      0.0924387
	      0.1012836
	      0.1213215
	      0.1026043
	      0.1215710
	      0.1186478
	      0.1186475
	      0.1215704
	      0.1026038
	      0.1213198
	      0.1012825
	      0.1018629
	      0.1205168
	      0.0993155
	      0.1186478
	      0.1153385
	      0.1153381
	      0.1186472
	      0.0993151
	      0.1205151
	      0.1018617
	      0.1018628
	      0.1205164
	      0.0993149
	      0.1186472
	      0.1153378
	      0.1153375
	      0.1186466
	      0.0993145
	      0.1205146
	      0.1018616
	      0.1012834
	      0.1213207
	      0.1026033
	      0.1215700
	      0.1186468
	      0.1186465
	      0.1215694
	      0.1026028
	      0.1213190
	      0.1012823
	      0.0924390
	      0.1038077
	      0.0857316
	      0.1026034
	      0.0993148
	      0.0993145
	      0.1026028
	      0.0857311
	      0.1038063
	      0.0924383
	      0.0923013
	      0.1023906
	      0.1038062
	      0.1213189
	      0.1205143
	      0.1205140
	      0.1213184
	      0.1038058
	      0.1023896
	      0.0923009
	      0.1207523
	      0.0923014
	      0.0924384
	      0.1012822
	      0.1018615
	      0.1018614
	      0.1012819
	      0.0924382
	      0.0923011
	      0.1207514
	      1.5249577
	      0.8561619
	      0.8688703
	      0.9054482
	      0.8585430
	      0.8585404
	      0.9054431
	      0.8688668
	      0.8561538
	      1.5249265
	      0.8561550
	      0.1150341
	      0.1294542
	      0.1839220
	      0.1442219
	      0.1442209
	      0.1839212
	      0.1294575
	      0.1150360
	      0.8561359
	      0.8688613
	      0.1294536
	      0.1484789
	      0.2269302
	      0.1820833
	      0.1820820
	      0.2269289
	      0.1484821
	      0.1294554
	      0.8688387
	      0.9054397
	      0.1839226
	      0.2269318
	      0.3258275
	      0.2778047
	      0.2778030
	      0.3258252
	      0.2269345
	      0.1839240
	      0.9054155
	      0.8585338
	      0.1442226
	      0.1820848
	      0.2778045
	      0.2239548
	      0.2239533
	      0.2778025
	      0.1820882
	      0.1442246
	      0.8585103
	      0.8585305
	      0.1442210
	      0.1820825
	      0.2778015
	      0.2239520
	      0.2239504
	      0.2777996
	      0.1820859
	      0.1442230
	      0.8585070
	      0.9054337
	      0.1839213
	      0.2269294
	      0.3258238
	      0.2778010
	      0.2777993
	      0.3258215
	      0.2269321
	      0.1839226
	      0.9054095
	      0.8688583
	      0.1294583
	      0.1484839
	      0.2269350
	      0.1820887
	      0.1820874
	      0.2269337
	      0.1484871
	      0.1294601
	      0.8688357
	      0.8561454
	      0.1150364
	      0.1294562
	      0.1839241
	      0.1442248
	      0.1442237
	      0.1839233
	      0.1294595
	      0.1150382
	      0.8561263
	      1.5249144
	      0.8561275
	      0.8688302
	      0.9054060
	      0.8585004
	      0.8584978
	      0.9054009
	      0.8688266
	      0.8561194
	      1.5248833
