# vtk DataFile Version 3.0
test_file
ASCII
DATASET POLYDATA
POINTS 1000 float
   0.37500 	   -0.00000 	    0.00000
   0.37500 	   -0.00000 	    1.00000
   0.37500 	    0.00000 	    2.00000
   0.37500 	    0.00000 	    3.00000
   0.37500 	    0.00000 	    4.00000
   0.37500 	    0.00000 	    5.00000
   0.37500 	    0.00000 	    6.00000
   0.37500 	    0.00000 	    7.00000
   0.37500 	   -0.00000 	    8.00000
   0.37500 	    0.00000 	    9.00000
   0.37500 	    1.00000 	    0.00000
   0.37500 	    1.00000 	    1.00000
   0.37500 	    1.00000 	    2.00000
   0.37500 	    1.00000 	    3.00000
   0.37500 	    1.00000 	    4.00000
   0.37500 	    1.00000 	    5.00000
   0.37500 	    1.00000 	    6.00000
   0.37500 	    1.00000 	    7.00000
   0.37500 	    1.00000 	    8.00000
   0.37500 	    1.00000 	    9.00000
   0.37500 	    2.00000 	    0.00000
   0.37500 	    2.00000 	    1.00000
   0.37500 	    2.00000 	    2.00000
   0.37500 	    2.00000 	    3.00000
   0.37500 	    2.00000 	    4.00000
   0.37500 	    2.00000 	    5.00000
   0.37500 	    2.00000 	    6.00000
   0.37500 	    2.00000 	    7.00000
   0.37500 	    2.00000 	    8.00000
   0.37500 	    2.00000 	    9.00000
   0.37500 	    3.00000 	    0.00000
   0.37500 	    3.00000 	    1.00000
   0.37500 	    3.00000 	    2.00000
   0.37500 	    3.00000 	    3.00000
   0.37500 	    3.00000 	    4.00000
   0.37500 	    3.00000 	    5.00000
   0.37500 	    3.00000 	    6.00000
   0.37500 	    3.00000 	    7.00000
   0.37500 	    3.00000 	    8.00000
   0.37500 	    3.00000 	    9.00000
   0.37500 	    4.00000 	    0.00000
   0.37500 	    4.00000 	    1.00000
   0.37500 	    4.00000 	    2.00000
   0.37500 	    4.00000 	    3.00000
   0.37500 	    4.00000 	    4.00000
   0.37500 	    4.00000 	    5.00000
   0.37500 	    4.00000 	    6.00000
   0.37500 	    4.00000 	    7.00000
   0.37500 	    4.00000 	    8.00000
   0.37500 	    4.00000 	    9.00000
   0.37500 	    5.00000 	    0.00000
   0.37500 	    5.00000 	    1.00000
   0.37500 	    5.00000 	    2.00000
   0.37500 	    5.00000 	    3.00000
   0.37500 	    5.00000 	    4.00000
   0.37500 	    5.00000 	    5.00000
   0.37500 	    5.00000 	    6.00000
   0.37500 	    5.00000 	    7.00000
   0.37500 	    5.00000 	    8.00000
   0.37500 	    5.00000 	    9.00000
   0.37500 	    6.00000 	    0.00000
   0.37500 	    6.00000 	    1.00000
   0.37500 	    6.00000 	    2.00000
   0.37500 	    6.00000 	    3.00000
   0.37500 	    6.00000 	    4.00000
   0.37500 	    6.00000 	    5.00000
   0.37500 	    6.00000 	    6.00000
   0.37500 	    6.00000 	    7.00000
   0.37500 	    6.00000 	    8.00000
   0.37500 	    6.00000 	    9.00000
   0.37500 	    7.00000 	    0.00000
   0.37500 	    7.00000 	    1.00000
   0.37500 	    7.00000 	    2.00000
   0.37500 	    7.00000 	    3.00000
   0.37500 	    7.00000 	    4.00000
   0.37500 	    7.00000 	    5.00000
   0.37500 	    7.00000 	    6.00000
   0.37500 	    7.00000 	    7.00000
   0.37500 	    7.00000 	    8.00000
   0.37500 	    7.00000 	    9.00000
   0.37500 	    8.00000 	    0.00000
   0.37500 	    8.00000 	    1.00000
   0.37500 	    8.00000 	    2.00000
   0.37500 	    8.00000 	    3.00000
   0.37500 	    8.00000 	    4.00000
   0.37500 	    8.00000 	    5.00000
   0.37500 	    8.00000 	    6.00000
   0.37500 	    8.00000 	    7.00000
   0.37500 	    8.00000 	    8.00000
   0.37500 	    8.00000 	    9.00000
   0.37500 	    9.00000 	    0.00000
   0.37500 	    9.00000 	    1.00000
   0.37500 	    9.00000 	    2.00000
   0.37500 	    9.00000 	    3.00000
   0.37500 	    9.00000 	    4.00000
   0.37500 	    9.00000 	    5.00000
   0.37500 	    9.00000 	    6.00000
   0.37500 	    9.00000 	    7.00000
   0.37500 	    9.00000 	    8.00000
   0.37500 	    9.00000 	    9.00000
   1.37557 	   -0.06566 	   -0.06566
   1.37069 	   -0.07100 	    0.96276
   1.36832 	   -0.07169 	    1.98076
   1.37047 	   -0.07399 	    2.98436
   1.36912 	   -0.07388 	    3.99394
   1.36912 	   -0.07388 	    5.00606
   1.37047 	   -0.07399 	    6.01564
   1.36832 	   -0.07169 	    7.01924
   1.37069 	   -0.07099 	    8.03724
   1.37557 	   -0.06566 	    9.06566
   1.37069 	    0.96276 	   -0.07099
   1.36770 	    0.94898 	    0.94898
   1.35996 	    0.95289 	    1.97795
   1.36161 	    0.95076 	    2.97464
   1.36115 	    0.95305 	    3.98974
   1.36115 	    0.95305 	    5.01025
   1.36161 	    0.95076 	    6.02535
   1.35996 	    0.95289 	    7.02205
   1.36770 	    0.94898 	    8.05101
   1.37070 	    0.96276 	    9.07099
   1.36832 	    1.98076 	   -0.07169
   1.35996 	    1.97794 	    0.95289
   1.35884 	    1.97902 	    1.97902
   1.35847 	    1.97962 	    2.96817
   1.36019 	    1.97989 	    3.98779
   1.36019 	    1.97989 	    5.01221
   1.35847 	    1.97962 	    6.03183
   1.35884 	    1.97902 	    7.02098
   1.35996 	    1.97794 	    8.04711
   1.36832 	    1.98076 	    9.07169
   1.37047 	    2.98436 	   -0.07399
   1.36161 	    2.97464 	    0.95076
   1.35847 	    2.96817 	    1.97962
   1.35712 	    2.96795 	    2.96795
   1.35880 	    2.96729 	    3.98805
   1.35880 	    2.96729 	    5.01194
   1.35712 	    2.96795 	    6.03204
   1.35847 	    2.96817 	    7.02038
   1.36161 	    2.97464 	    8.04924
   1.37047 	    2.98436 	    9.07399
   1.36912 	    3.99394 	   -0.07387
   1.36115 	    3.98974 	    0.95305
   1.36019 	    3.98779 	    1.97990
   1.35880 	    3.98805 	    2.96729
   1.36037 	    3.98795 	    3.98795
   1.36037 	    3.98795 	    5.01204
   1.35880 	    3.98805 	    6.03270
   1.36019 	    3.98779 	    7.02010
   1.36115 	    3.98974 	    8.04695
   1.36913 	    3.99394 	    9.07387
   1.36912 	    5.00606 	   -0.07387
   1.36115 	    5.01025 	    0.95305
   1.36019 	    5.01220 	    1.97990
   1.35880 	    5.01194 	    2.96729
   1.36037 	    5.01204 	    3.98795
   1.36037 	    5.01204 	    5.01204
   1.35880 	    5.01194 	    6.03270
   1.36019 	    5.01220 	    7.02010
   1.36115 	    5.01025 	    8.04695
   1.36912 	    5.00606 	    9.07387
   1.37047 	    6.01564 	   -0.07399
   1.36161 	    6.02535 	    0.95076
   1.35847 	    6.03183 	    1.97962
   1.35712 	    6.03204 	    2.96795
   1.35880 	    6.03270 	    3.98805
   1.35880 	    6.03270 	    5.01194
   1.35712 	    6.03204 	    6.03204
   1.35847 	    6.03183 	    7.02038
   1.36161 	    6.02535 	    8.04924
   1.37047 	    6.01564 	    9.07399
   1.36832 	    7.01924 	   -0.07169
   1.35996 	    7.02205 	    0.95289
   1.35884 	    7.02098 	    1.97902
   1.35847 	    7.02038 	    2.96817
   1.36019 	    7.02010 	    3.98779
   1.36019 	    7.02010 	    5.01221
   1.35847 	    7.02038 	    6.03183
   1.35884 	    7.02098 	    7.02098
   1.35996 	    7.02205 	    8.04711
   1.36832 	    7.01924 	    9.07169
   1.37069 	    8.03724 	   -0.07099
   1.36770 	    8.05101 	    0.94899
   1.35996 	    8.04711 	    1.97795
   1.36161 	    8.04924 	    2.97464
   1.36115 	    8.04695 	    3.98974
   1.36115 	    8.04694 	    5.01025
   1.36161 	    8.04924 	    6.02535
   1.35996 	    8.04710 	    7.02205
   1.36770 	    8.05101 	    8.05101
   1.37069 	    8.03724 	    9.07099
   1.37557 	    9.06566 	   -0.06566
   1.37070 	    9.07099 	    0.96276
   1.36832 	    9.07169 	    1.98076
   1.37047 	    9.07399 	    2.98436
   1.36913 	    9.07387 	    3.99394
   1.36913 	    9.07387 	    5.00606
   1.37047 	    9.07399 	    6.01564
   1.36832 	    9.07169 	    7.01924
   1.37070 	    9.07099 	    8.03724
   1.37557 	    9.06566 	    9.06566
   2.29114 	   -0.09571 	   -0.09571
   2.30593 	   -0.10074 	    0.92805
   2.31009 	   -0.10519 	    1.95269
   2.30950 	   -0.10928 	    2.97085
   2.30798 	   -0.11145 	    3.99044
   2.30798 	   -0.11145 	    5.00955
   2.30950 	   -0.10928 	    6.02915
   2.31009 	   -0.10519 	    7.04730
   2.30593 	   -0.10073 	    8.07195
   2.29114 	   -0.09571 	    9.09571
   2.30593 	    0.92805 	   -0.10073
   2.34408 	    0.92000 	    0.92000
   2.35641 	    0.91262 	    1.95902
   2.35448 	    0.90928 	    2.97436
   2.35207 	    0.90616 	    3.99219
   2.35207 	    0.90616 	    5.00781
   2.35448 	    0.90928 	    6.02564
   2.35641 	    0.91262 	    7.04097
   2.34408 	    0.92000 	    8.07999
   2.30593 	    0.92805 	    9.10073
   2.31009 	    1.95269 	   -0.10519
   2.35641 	    1.95902 	    0.91262
   2.35887 	    1.95534 	    1.95534
   2.35402 	    1.95544 	    2.97655
   2.34819 	    1.95059 	    3.99312
   2.34819 	    1.95059 	    5.00688
   2.35402 	    1.95544 	    6.02344
   2.35887 	    1.95534 	    7.04465
   2.35641 	    1.95902 	    8.08737
   2.31010 	    1.95269 	    9.10518
   2.30950 	    2.97085 	   -0.10928
   2.35448 	    2.97436 	    0.90928
   2.35402 	    2.97655 	    1.95544
   2.34865 	    2.97547 	    2.97548
   2.34177 	    2.97426 	    3.99223
   2.34177 	    2.97426 	    5.00777
   2.34865 	    2.97547 	    6.02452
   2.35402 	    2.97655 	    7.04456
   2.35448 	    2.97436 	    8.09072
   2.30950 	    2.97085 	    9.10927
   2.30798 	    3.99044 	   -0.11145
   2.35207 	    3.99219 	    0.90616
   2.34819 	    3.99312 	    1.95059
   2.34177 	    3.99223 	    2.97426
   2.33394 	    3.99169 	    3.99169
   2.33394 	    3.99169 	    5.00830
   2.34177 	    3.99223 	    6.02574
   2.34819 	    3.99312 	    7.04941
   2.35207 	    3.99219 	    8.09383
   2.30798 	    3.99044 	    9.11144
   2.30798 	    5.00955 	   -0.11144
   2.35207 	    5.00780 	    0.90616
   2.34819 	    5.00688 	    1.95059
   2.34177 	    5.00777 	    2.97426
   2.33394 	    5.00830 	    3.99169
   2.33394 	    5.00830 	    5.00830
   2.34176 	    5.00777 	    6.02574
   2.34819 	    5.00688 	    7.04941
   2.35207 	    5.00780 	    8.09383
   2.30798 	    5.00955 	    9.11144
   2.30950 	    6.02915 	   -0.10928
   2.35448 	    6.02564 	    0.90928
   2.35402 	    6.02344 	    1.95544
   2.34864 	    6.02452 	    2.97548
   2.34177 	    6.02574 	    3.99223
   2.34176 	    6.02574 	    5.00777
   2.34864 	    6.02452 	    6.02452
   2.35402 	    6.02344 	    7.04456
[...]
POINT_DATA 1000
SCALARS C float
LOOKUP_TABLE default
	      0.8740212
	      0.4995909
	      0.4897235
	      0.5119675
	      0.4903849
	      0.4903826
	      0.5119637
	      0.4897211
	      0.4995836
	      0.8739977
	      0.4995861
	      0.1175173
	      0.1103427
	      0.1338427
	      0.1163505
	      0.1163494
	      0.1338417
	      0.1103449
	      0.1175165
	      0.4995714
	      0.4897171
	      0.1103420
	      0.1069951
	      0.1401777
	      0.1214614
	      0.1214599
	      0.1401760
	      0.1069972
	      0.1103421
	      0.4897007
	      0.5119613
	      0.1338427
	      0.1401786
	      0.1833135
	      0.1647620
	      0.1647605
	      0.1833116
	      0.1401804
	      0.1338425
	      0.5119437
	      0.4903781
	      0.1163506
	      0.1214622
	      0.1647618
	      0.1448293
	      0.1448278
	      0.1647599
	      0.1214641
	      0.1163508
	      0.4903608
	      0.4903751
	      0.1163488
	      0.1214600
	      0.1647593
	      0.1448268
	      0.1448253
	      0.1647574
	      0.1214619
	      0.1163490
	      0.4903578
	      0.5119568
	      0.1338412
	      0.1401762
	      0.1833105
	      0.1647587
	      0.1647572
	      0.1833085
	      0.1401780
	      0.1338410
	      0.5119393
	      0.4897151
	      0.1103450
	      0.1069982
	      0.1401805
	      0.1214642
	      0.1214627
	      0.1401788
	      0.1070003
	      0.1103451
	      0.4896987
	      0.4995771
	      0.1175159
	      0.1103421
	      0.1338420
	      0.1163503
	      0.1163491
	      0.1338410
	      0.1103443
	      0.1175151
	      0.4995624
	      0.8739884
	      0.4995650
	      0.4896946
	      0.5119368
	      0.4903534
	      0.4903510
	      0.5119330
	      0.4896923
	      0.4995576
	      0.8739649
	      0.0703461
	      0.0541919
	      0.0537803
	      0.0587465
	      0.0593414
	      0.0593414
	      0.0587465
	      0.0537802
	      0.0541918
	      0.0703457
	      0.0541921
	      0.0556593
	      0.0555790
	      0.0663646
	      0.0658503
	      0.0658501
	      0.0663647
	      0.0555784
	      0.0556593
	      0.0541918
	      0.0537803
	      0.0555789
	      0.0467517
	      0.0561229
	      0.0549602
	      0.0549597
	      0.0561230
	      0.0467509
	      0.0555789
	      0.0537797
	      0.0587463
	      0.0663642
	      0.0561227
	      0.0664322
	      0.0661562
	      0.0661556
	      0.0664320
	      0.0561217
	      0.0663642
	      0.0587454
	      0.0593413
	      0.0658501
	      0.0549601
	      0.0661563
	      0.0661821
	      0.0661815
	      0.0661561
	      0.0549592
	      0.0658502
	      0.0593405
	      0.0593414
	      0.0658500
	      0.0549594
	      0.0661554
	      0.0661812
	      0.0661805
	      0.0661552
	      0.0549585
	      0.0658500
	      0.0593405
	      0.0587463
	      0.0663644
	      0.0561227
	      0.0664319
	      0.0661559
	      0.0661553
	      0.0664318
	      0.0561217
	      0.0663644
	      0.0587454
	      0.0537801
	      0.0555780
	      0.0467504
	      0.0561214
	      0.0549589
	      0.0549584
	      0.0561215
	      0.0467496
	      0.0555780
	      0.0537795
	      0.0541918
	      0.0556594
	      0.0555785
	      0.0663639
	      0.0658500
	      0.0658499
	      0.0663640
	      0.0555779
	      0.0556594
	      0.0541915
	      0.0703459
	      0.0541918
	      0.0537796
	      0.0587453
	      0.0593405
	      0.0593405
	      0.0587452
	      0.0537795
	      0.0541917
	      0.0703455
	      0.1615644
	      0.1184895
	      0.1076887
	      0.1069250
	      0.1064191
	      0.1064190
	      0.1069246
	      0.1076879
	      0.1184882
	      0.1615621
	      0.1184895
	      0.0920351
	      0.0851642
	      0.0848155
	      0.0843419
	      0.0843417
	      0.0848151
	      0.0851635
	      0.0920345
	      0.1184885
	      0.1076886
	      0.0851641
	      0.0851990
	      0.0832970
	      0.0845775
	      0.0845775
	      0.0832973
	      0.0851977
	      0.0851631
	      0.1076873
	      0.1069247
	      0.0848150
	      0.0832965
	      0.0791608
	      0.0803506
	      0.0803502
	      0.0791616
	      0.0832959
	      0.0848137
	      0.1069231
	      0.1064187
	      0.0843414
	      0.0845771
	      0.0803508
	      0.0825270
	      0.0825268
	      0.0803515
	      0.0845764
	      0.0843395
	      0.1064171
	      0.1064185
	      0.0843411
	      0.0845771
	      0.0803504
	      0.0825266
	      0.0825264
	      0.0803511
	      0.0845763
	      0.0843392
	      0.1064169
	      0.1069241
	      0.0848145
	      0.0832969
	      0.0791619
	      0.0803517
	      0.0803513
	      0.0791626
	      0.0832963
	      0.0848132
	      0.1069225
	      0.1076873
	      0.0851629
	      0.0851969
	      0.0832956
	      0.0845760
	      0.0845759
	      0.0832958
	      0.0851956
	      0.0851619
	      0.1076860
	      0.1184875
	      0.0920344
	      0.0851624
	      0.0848131
	      0.0843389
	      0.0843387
	      0.0848127
	      0.0851617
	      0.0920338
	      0.1184865
	      0.1615615
	      0.1184878
	      0.1076867
	      0.1069226
	      0.1064166
	      0.1064165
	      0.1069222
	      0.1076859
	      0.1184865
	      0.1615591
	      0.1543276
	      0.1216366
	      0.1155073
	      0.1151043
	      0.1151479
	      0.1151477
	      0.1151039
	      0.1155065
	      0.1216356
	      0.1543260
	      0.1216369
	      0.0974693
	      0.0943230
	      0.0934390
	      0.0932146
	      0.0932144
	      0.0934386
	      0.0943223
	      0.0974694
	      0.1216360
	      0.1155074
	      0.0943233
	      0.1112706
	      0.1110265
	      0.1164831
	      0.1164829
	      0.1110263
	      0.1112698
	      0.0943243
	      0.1155060
	      0.1151042
	      0.0934392
	      0.1110262
	      0.1048934
	      0.1096335
	      0.1096329
	      0.1048929
	      0.1110255
	      0.0934400
	      0.1151025
	      0.1151477
	      0.0932148
	      0.1164826
	      0.1096334
	      0.1166204
	      0.1166201
	      0.1096327
	      0.1164817
	      0.0932151
	      0.1151459
	      0.1151474
	      0.0932144
	      0.1164824
	      0.1096326
	      0.1166198
	      0.1166194
	      0.1096320
	      0.1164815
	      0.0932148
	      0.1151457
	      0.1151034
	      0.0934385
	      0.1110258
	      0.1048924
	      0.1096324
	      0.1096318
	      0.1048918
	      0.1110251
	      0.0934393
	      0.1151017
	      0.1155059
	      0.0943222
	      0.1112693
	      0.1110249
	      0.1164812
	      0.1164810
	      0.1110247
	      0.1112685
	      0.0943231
	      0.1155045
	      0.1216349
	      0.0974696
	      0.0943241
	      0.0934400
	      0.0932152
	      0.0932150
	      0.0934395
	      0.0943234
	      0.0974696
	      0.1216341
	      0.1543258
	      0.1216354
	      0.1155054
	      0.1151021
	      0.1151456
	      0.1151455
	      0.1151017
	      0.1155046
	      0.1216343
	      0.1543242
	      0.1266133
	      0.1057081
	      0.1039212
	      0.1056480
	      0.1060758
	      0.1060757
	      0.1056476
	      0.1039208
	      0.1057077
	      0.1266129
	      0.1057086
	      0.0850183
	      0.0855986
	      0.0870673
	      0.0869855
	      0.0869853
	      0.0870667
	      0.0855981
	      0.0850187
	      0.1057092
	      0.1039218
	      0.0855990
	      0.0909393
	      0.0923044
	      0.0992822
	      0.0992830
	      0.0923045
	      0.0909378
	      0.0855991
	      0.1039220
	      0.1056485
	      0.0870676
	      0.0923037
	      0.0885913
	      0.0958382
	      0.0958391
	      0.0885913
	      0.0923018
	      0.0870680
	      0.1056485
	      0.1060762
	      0.0869856
	      0.0992814
	      0.0958380
	      0.1065123
	      0.1065136
	      0.0958380
	      0.0992794
	      0.0869860
	      0.1060763
	      0.1060759
	      0.0869855
	      0.0992824
	      0.0958392
	      0.1065140
	      0.1065152
	      0.0958392
	      0.0992805
	      0.0869859
	      0.1060759
	      0.1056476
	      0.0870669
	      0.0923039
	      0.0885912
	      0.0958381
	      0.0958391
	      0.0885912
	      0.0923020
	      0.0870672
	      0.1056477
	      0.1039207
	      0.0855981
	      0.0909369
	      0.0923012
	      0.0992789
	      0.0992797
	      0.0923013
	      0.0909354
	      0.0855982
	      0.1039209
	      0.1057075
	      0.0850189
	      0.0855991
	      0.0870681
	      0.0869862
	      0.0869860
	      0.0870676
	      0.0855986
	      0.0850193
	      0.1057082
	      0.1266135
	      0.1057090
	      0.1039219
	      0.1056486
	      0.1060764
	      0.1060763
	      0.1056482
	      0.1039214
	      0.1057086
	      0.1266132
	      0.1266215
	      0.1056470
	      0.1038529
	      0.1055414
	      0.1059088
	      0.1059086
	      0.1055411
	      0.1038526
	      0.1056466
	      0.1266212
	      0.1056475
	      0.0846335
	      0.0859779
	      0.0866535
	      0.0865605
	      0.0865602
	      0.0866529
	      0.0859775
	      0.0846338
	      0.1056481
	      0.1038535
	      0.0859781
	      0.0931549
	      0.0949772
	      0.1000752
	      0.1000754
	      0.0949773
	      0.0931541
	      0.0859783
	      0.1038538
	      0.1055419
	      0.0866538
	      0.0949766
	      0.0916972
	      0.0960959
	      0.0960959
	      0.0916971
	      0.0949757
	      0.0866539
	      0.1055421
	      0.1059092
	      0.0865607
	      0.1000746
	      0.0960958
	      0.1032486
	      0.1032488
	      0.0960957
	      0.1000737
	      0.0865604
	      0.1059094
	      0.1059088
	      0.0865603
	      0.1000749
	      0.0960958
	      0.1032489
	      0.1032491
	      0.0960957
	      0.1000740
	      0.0865601
	      0.1059091
	      0.1055411
	      0.0866529
	      0.0949768
	      0.0916970
	      0.0960956
	      0.0960956
	      0.0916969
	      0.0949759
	      0.0866531
	      0.1055413
	      0.1038525
	      0.0859774
	      0.0931533
	      0.0949752
	      0.1000733
	      0.1000735
	      0.0949754
	      0.0931525
	      0.0859776
	      0.1038527
	      0.1056465
	      0.0846341
	      0.0859782
	      0.0866540
	      0.0865605
	      0.0865602
	      0.0866534
	      0.0859778
	      0.0846345
	      0.1056472
	      0.1266218
	      0.1056480
	      0.1038537
	      0.1055422
	      0.1059096
	      0.1059095
	      0.1055419
	      0.1038533
	      0.1056476
	      0.1266214
	      0.1545206
	      0.1218399
	      0.1157938
	      0.1154412
	      0.1154837
	      0.1154835
	      0.1154408
	      0.1157931
	      0.1218389
	      0.1545190
	      0.1218401
	      0.0976549
	      0.0938943
	      0.0925359
	      0.0926214
	      0.0926211
	      0.0925354
	      0.0938937
	      0.0976547
	      0.1218395
	      0.1157939
	      0.0938944
	      0.1105067
	      0.1110550
	      0.1157000
	      0.1156997
	      0.1110546
	      0.1105062
	      0.0938942
	      0.1157926
	      0.1154412
	      0.0925360
	      0.1110548
	      0.1061879
	      0.1093576
	      0.1093566
	      0.1061868
	      0.1110545
	      0.0925356
	      0.1154395
	      0.1154835
	      0.0926214
	      0.1156996
	      0.1093573
	      0.1140382
	      0.1140374
	      0.1093562
	      0.1156994
	      0.0926202
	      0.1154818
	      0.1154832
	      0.0926209
	      0.1156992
	      0.1093562
	      0.1140370
	      0.1140362
	      0.1093551
	      0.1156990
	      0.0926197
	      0.1154815
	      0.1154403
	      0.0925351
	      0.1110541
	      0.1061863
	      0.1093558
	      0.1093548
	      0.1061852
	      0.1110538
	      0.0925347
	      0.1154386
	      0.1157925
	      0.0938933
	      0.1105056
	      0.1110540
	      0.1156989
	      0.1156986
	      0.1110536
	      0.1105051
	      0.0938931
	      0.1157912
	      0.1218383
	      0.0976546
	      0.0938939
	      0.0925353
	      0.0926200
	      0.0926197
	      0.0925348
	      0.0938933
	      0.0976543
	      0.1218377
	      0.1545189
	      0.1218388
	      0.1157920
	      0.1154391
	      0.1154815
	      0.1154813
	      0.1154386
	      0.1157913
	      0.1218379
	      0.1545173
	      0.1621631
	      0.1190474
	      0.1083473
	      0.1076994
	      0.1072837
	      0.1072836
	      0.1076989
	      0.1083466
	      0.1190462
	      0.1621607
	      0.1190475
	      0.0929016
	      0.0854439
	      0.0856237
	      0.0853644
	      0.0853643
	      0.0856232
	      0.0854433
	      0.0929012
	      0.1190459
	      0.1083472
	      0.0854440
	      0.0831638
	      0.0815775
	      0.0840847
	      0.0840853
	      0.0815778
	      0.0831634
	      0.0854439
	      0.1083452
	      0.1076990
	      0.0856234
	      0.0815771
	      0.0784012
	      0.0810448
	      0.0810451
	      0.0784017
	      0.0815771
	      0.0856235
	      0.1076967
	      0.1072832
	      0.0853641
	      0.0840844
	      0.0810449
	      0.0845736
	      0.0845740
	      0.0810454
	      0.0840846
	      0.0853639
	      0.1072808
	      0.1072830
	      0.0853639
	      0.0840852
	      0.0810454
	      0.0845742
	      0.0845746
	      0.0810459
	      0.0840853
	      0.0853637
	      0.1072806
	      0.1076983
	      0.0856229
	      0.0815777
	      0.0784020
	      0.0810457
	      0.0810460
	      0.0784025
	      0.0815776
	      0.0856230
	      0.1076960
	      0.1083458
	      0.0854430
	      0.0831632
	      0.0815769
	      0.0840845
	      0.0840850
	      0.0815772
	      0.0831628
	      0.0854429
	      0.1083438
	      0.1190454
	      0.0929012
	      0.0854436
	      0.0856231
	      0.0853636
	      0.0853634
	      0.0856226
	      0.0854430
	      0.0929008
	      0.1190439
	      0.1621600
	      0.1190451
	      0.1083444
	      0.1076960
	      0.1072802
	      0.1072801
	      0.1076956
	      0.1083437
	      0.1190439
	      0.1621575
	      0.0712370
	      0.0547504
	      0.0543272
	      0.0593418
	      0.0599256
	      0.0599256
	      0.0593417
	      0.0543271
	      0.0547504
	      0.0712366
	      0.0547506
	      0.0557760
	      0.0556097
	      0.0664062
	      0.0658100
	      0.0658097
	      0.0664057
	      0.0556095
	      0.0557758
	      0.0547505
	      0.0543272
	      0.0556096
	      0.0484255
	      0.0571917
	      0.0551471
	      0.0551463
	      0.0571906
	      0.0484251
	      0.0556094
	      0.0543270
	      0.0593418
	      0.0664059
	      0.0571917
	      0.0665563
	      0.0649938
	      0.0649929
	      0.0665549
	      0.0571910
	      0.0664055
	      0.0593412
	      0.0599255
	      0.0658098
	      0.0551471
	      0.0649937
	      0.0636614
	      0.0636605
	      0.0649923
	      0.0551464
	      0.0658093
	      0.0599250
	      0.0599256
	      0.0658093
	      0.0551460
	      0.0649924
	      0.0636601
	      0.0636591
	      0.0649910
	      0.0551453
	      0.0658089
	      0.0599251
	      0.0593416
	      0.0664052
	      0.0571901
	      0.0665543
	      0.0649917
	      0.0649908
	      0.0665530
	      0.0571894
	      0.0664047
	      0.0593410
	      0.0543270
	      0.0556091
	      0.0484247
	      0.0571906
	      0.0551460
	      0.0551452
	      0.0571895
	      0.0484243
	      0.0556090
	      0.0543268
	      0.0547504
	      0.0557759
	      0.0556090
	      0.0664050
	      0.0658089
	      0.0658087
	      0.0664045
	      0.0556088
	      0.0557758
	      0.0547503
	      0.0712370
	      0.0547505
	      0.0543269
	      0.0593411
	      0.0599250
	      0.0599250
	      0.0593410
	      0.0543268
	      0.0547505
	      0.0712366
	      0.8738395
	      0.4985776
	      0.4871033
	      0.5100127
	      0.4885793
	      0.4885773
	      0.5100091
	      0.4871002
	      0.4985703
	      0.8738158
	      0.4985730
	      0.1207378
	      0.1120672
	      0.1356057
	      0.1177670
	      0.1177664
	      0.1356054
	      0.1120686
	      0.1207376
	      0.4985581
	      0.4870970
	      0.1120665
	      0.1069471
	      0.1399812
	      0.1208881
	      0.1208872
	      0.1399802
	      0.1069485
	      0.1120668
	      0.4870806
	      0.5100064
	      0.1356055
	      0.1399819
	      0.1829673
	      0.1640044
	      0.1640034
	      0.1829660
	      0.1399829
	      0.1356055
	      0.5099887
	      0.4885724
	      0.1177670
	      0.1208888
	      0.1640043
	      0.1434494
	      0.1434484
	      0.1640031
	      0.1208901
	      0.1177672
	      0.4885550
	      0.4885698
	      0.1177660
	      0.1208872
	      0.1640025
	      0.1434477
	      0.1434467
	      0.1640013
	      0.1208885
	      0.1177662
	      0.4885523
	      0.5100022
	      0.1356050
	      0.1399803
	      0.1829651
	      0.1640022
	      0.1640012
	      0.1829638
	      0.1399813
	      0.1356049
	      0.5099845
	      0.4870941
	      0.1120685
	      0.1069492
	      0.1399830
	      0.1208901
	      0.1208891
	      0.1399820
	      0.1069505
	      0.1120688
	      0.4870777
	      0.4985638
	      0.1207372
	      0.1120667
	      0.1356051
	      0.1177668
	      0.1177662
	      0.1356047
	      0.1120681
	      0.1207369
	      0.4985490
	      0.8738061
	      0.4985517
	      0.4870744
	      0.5099818
	      0.4885475
	      0.4885455
	      0.5099782
	      0.4870713
	      0.4985443
	      0.8737824
