# vtk DataFile Version 3.0
test_file
ASCII
DATASET POLYDATA
POINTS 1000 float
   0.25000 	   -0.00000 	    0.00000
   0.25000 	   -0.00000 	    1.00000
   0.25000 	    0.00000 	    2.00000
   0.25000 	    0.00000 	    3.00000
   0.25000 	    0.00000 	    4.00000
   0.25000 	    0.00000 	    5.00000
   0.25000 	    0.00000 	    6.00000
   0.25000 	    0.00000 	    7.00000
   0.25000 	   -0.00000 	    8.00000
   0.25000 	    0.00000 	    9.00000
   0.25000 	    1.00000 	    0.00000
   0.25000 	    1.00000 	    1.00000
   0.25000 	    1.00000 	    2.00000
   0.25000 	    1.00000 	    3.00000
   0.25000 	    1.00000 	    4.00000
   0.25000 	    1.00000 	    5.00000
   0.25000 	    1.00000 	    6.00000
   0.25000 	    1.00000 	    7.00000
   0.25000 	    1.00000 	    8.00000
   0.25000 	    1.00000 	    9.00000
   0.25000 	    2.00000 	    0.00000
   0.25000 	    2.00000 	    1.00000
   0.25000 	    2.00000 	    2.00000
   0.25000 	    2.00000 	    3.00000
   0.25000 	    2.00000 	    4.00000
   0.25000 	    2.00000 	    5.00000
   0.25000 	    2.00000 	    6.00000
   0.25000 	    2.00000 	    7.00000
   0.25000 	    2.00000 	    8.00000
   0.25000 	    2.00000 	    9.00000
   0.25000 	    3.00000 	    0.00000
   0.25000 	    3.00000 	    1.00000
   0.25000 	    3.00000 	    2.00000
   0.25000 	    3.00000 	    3.00000
   0.25000 	    3.00000 	    4.00000
   0.25000 	    3.00000 	    5.00000
   0.25000 	    3.00000 	    6.00000
   0.25000 	    3.00000 	    7.00000
   0.25000 	    3.00000 	    8.00000
   0.25000 	    3.00000 	    9.00000
   0.25000 	    4.00000 	    0.00000
   0.25000 	    4.00000 	    1.00000
   0.25000 	    4.00000 	    2.00000
   0.25000 	    4.00000 	    3.00000
   0.25000 	    4.00000 	    4.00000
   0.25000 	    4.00000 	    5.00000
   0.25000 	    4.00000 	    6.00000
   0.25000 	    4.00000 	    7.00000
   0.25000 	    4.00000 	    8.00000
   0.25000 	    4.00000 	    9.00000
   0.25000 	    5.00000 	    0.00000
   0.25000 	    5.00000 	    1.00000
   0.25000 	    5.00000 	    2.00000
   0.25000 	    5.00000 	    3.00000
   0.25000 	    5.00000 	    4.00000
   0.25000 	    5.00000 	    5.00000
   0.25000 	    5.00000 	    6.00000
   0.25000 	    5.00000 	    7.00000
   0.25000 	    5.00000 	    8.00000
   0.25000 	    5.00000 	    9.00000
   0.25000 	    6.00000 	    0.00000
   0.25000 	    6.00000 	    1.00000
   0.25000 	    6.00000 	    2.00000
   0.25000 	    6.00000 	    3.00000
   0.25000 	    6.00000 	    4.00000
   0.25000 	    6.00000 	    5.00000
   0.25000 	    6.00000 	    6.00000
   0.25000 	    6.00000 	    7.00000
   0.25000 	    6.00000 	    8.00000
   0.25000 	    6.00000 	    9.00000
   0.25000 	    7.00000 	    0.00000
   0.25000 	    7.00000 	    1.00000
   0.25000 	    7.00000 	    2.00000
   0.25000 	    7.00000 	    3.00000
   0.25000 	    7.00000 	    4.00000
   0.25000 	    7.00000 	    5.00000
   0.25000 	    7.00000 	    6.00000
   0.25000 	    7.00000 	    7.00000
   0.25000 	    7.00000 	    8.00000
   0.25000 	    7.00000 	    9.00000
   0.25000 	    8.00000 	    0.00000
   0.25000 	    8.00000 	    1.00000
   0.25000 	    8.00000 	    2.00000
   0.25000 	    8.00000 	    3.00000
   0.25000 	    8.00000 	    4.00000
   0.25000 	    8.00000 	    5.00000
   0.25000 	    8.00000 	    6.00000
   0.25000 	    8.00000 	    7.00000
   0.25000 	    8.00000 	    8.00000
   0.25000 	    8.00000 	    9.00000
   0.25000 	    9.00000 	    0.00000
   0.25000 	    9.00000 	    1.00000
   0.25000 	    9.00000 	    2.00000
   0.25000 	    9.00000 	    3.00000
   0.25000 	    9.00000 	    4.00000
   0.25000 	    9.00000 	    5.00000
   0.25000 	    9.00000 	    6.00000
   0.25000 	    9.00000 	    7.00000
   0.25000 	    9.00000 	    8.00000
   0.25000 	    9.00000 	    9.00000
   1.24601 	   -0.04344 	   -0.04344
   1.24357 	   -0.04700 	    0.97448
   1.24176 	   -0.04782 	    1.98707
   1.24269 	   -0.04947 	    2.98956
   1.24206 	   -0.04951 	    3.99587
   1.24206 	   -0.04951 	    5.00413
   1.24269 	   -0.04947 	    6.01044
   1.24176 	   -0.04782 	    7.01293
   1.24357 	   -0.04699 	    8.02552
   1.24601 	   -0.04344 	    9.04344
   1.24357 	    0.97448 	   -0.04700
   1.24475 	    0.96516 	    0.96516
   1.23968 	    0.96665 	    1.98670
   1.24020 	    0.96548 	    2.98283
   1.24076 	    0.96637 	    3.99249
   1.24076 	    0.96637 	    5.00751
   1.24020 	    0.96548 	    6.01717
   1.23968 	    0.96665 	    7.01330
   1.24475 	    0.96516 	    8.03483
   1.24357 	    0.97448 	    9.04699
   1.24176 	    1.98707 	   -0.04782
   1.23968 	    1.98670 	    0.96665
   1.23725 	    1.98764 	    1.98764
   1.23655 	    1.98803 	    2.97818
   1.23820 	    1.98755 	    3.99087
   1.23820 	    1.98755 	    5.00912
   1.23655 	    1.98803 	    6.02182
   1.23725 	    1.98764 	    7.01235
   1.23968 	    1.98670 	    8.03334
   1.24176 	    1.98707 	    9.04782
   1.24269 	    2.98956 	   -0.04947
   1.24020 	    2.98283 	    0.96548
   1.23655 	    2.97818 	    1.98803
   1.23512 	    2.97765 	    2.97765
   1.23663 	    2.97681 	    3.99091
   1.23663 	    2.97681 	    5.00909
   1.23512 	    2.97765 	    6.02235
   1.23655 	    2.97818 	    7.01197
   1.24020 	    2.98283 	    8.03452
   1.24270 	    2.98956 	    9.04947
   1.24206 	    3.99587 	   -0.04951
   1.24076 	    3.99249 	    0.96637
   1.23820 	    3.99087 	    1.98755
   1.23663 	    3.99091 	    2.97681
   1.23813 	    3.99065 	    3.99066
   1.23813 	    3.99065 	    5.00934
   1.23663 	    3.99091 	    6.02319
   1.23819 	    3.99087 	    7.01245
   1.24076 	    3.99249 	    8.03363
   1.24206 	    3.99587 	    9.04951
   1.24206 	    5.00413 	   -0.04951
   1.24076 	    5.00751 	    0.96637
   1.23820 	    5.00912 	    1.98755
   1.23663 	    5.00909 	    2.97681
   1.23813 	    5.00934 	    3.99066
   1.23813 	    5.00934 	    5.00934
   1.23663 	    5.00909 	    6.02319
   1.23819 	    5.00912 	    7.01245
   1.24076 	    5.00751 	    8.03363
   1.24206 	    5.00413 	    9.04951
   1.24269 	    6.01044 	   -0.04947
   1.24020 	    6.01717 	    0.96548
   1.23655 	    6.02182 	    1.98803
   1.23512 	    6.02235 	    2.97765
   1.23663 	    6.02318 	    3.99091
   1.23663 	    6.02318 	    5.00909
   1.23512 	    6.02234 	    6.02235
   1.23655 	    6.02182 	    7.01197
   1.24020 	    6.01717 	    8.03452
   1.24270 	    6.01044 	    9.04947
   1.24176 	    7.01293 	   -0.04782
   1.23968 	    7.01330 	    0.96665
   1.23725 	    7.01235 	    1.98764
   1.23655 	    7.01197 	    2.97818
   1.23819 	    7.01245 	    3.99087
   1.23819 	    7.01245 	    5.00912
   1.23655 	    7.01197 	    6.02182
   1.23725 	    7.01235 	    7.01235
   1.23968 	    7.01330 	    8.03334
   1.24176 	    7.01293 	    9.04782
   1.24357 	    8.02552 	   -0.04699
   1.24475 	    8.03483 	    0.96517
   1.23968 	    8.03334 	    1.98670
   1.24020 	    8.03452 	    2.98283
   1.24076 	    8.03363 	    3.99249
   1.24076 	    8.03362 	    5.00751
   1.24020 	    8.03452 	    6.01717
   1.23968 	    8.03334 	    7.01330
   1.24475 	    8.03483 	    8.03483
   1.24357 	    8.02552 	    9.04699
   1.24601 	    9.04344 	   -0.04344
   1.24357 	    9.04699 	    0.97448
   1.24176 	    9.04782 	    1.98707
   1.24270 	    9.04947 	    2.98956
   1.24206 	    9.04951 	    3.99587
   1.24206 	    9.04951 	    5.00413
   1.24270 	    9.04947 	    6.01044
   1.24176 	    9.04782 	    7.01293
   1.24357 	    9.04699 	    8.02552
   1.24601 	    9.04344 	    9.04344
   2.19318 	   -0.06242 	   -0.06242
   2.20293 	   -0.06588 	    0.95250
   2.20552 	   -0.06931 	    1.96880
   2.20494 	   -0.07228 	    2.98081
   2.20402 	   -0.07379 	    3.99370
   2.20402 	   -0.07379 	    5.00629
   2.20494 	   -0.07228 	    6.01919
   2.20552 	   -0.06931 	    7.03120
   2.20293 	   -0.06588 	    8.04750
   2.19318 	   -0.06241 	    9.06242
   2.20293 	    0.95250 	   -0.06588
   2.22976 	    0.94714 	    0.94714
   2.23937 	    0.94121 	    1.97375
   2.23668 	    0.93872 	    2.98307
   2.23546 	    0.93671 	    3.99482
   2.23546 	    0.93671 	    5.00517
   2.23667 	    0.93872 	    6.01693
   2.23937 	    0.94121 	    7.02625
   2.22977 	    0.94714 	    8.05285
   2.20293 	    0.95250 	    9.06588
   2.20552 	    1.96880 	   -0.06931
   2.23937 	    1.97375 	    0.94121
   2.24304 	    1.97028 	    1.97028
   2.23666 	    1.96887 	    2.98647
   2.23520 	    1.96745 	    3.99601
   2.23520 	    1.96745 	    5.00400
   2.23666 	    1.96887 	    6.01353
   2.24303 	    1.97028 	    7.02972
   2.23937 	    1.97375 	    8.05878
   2.20552 	    1.96880 	    9.06931
   2.20494 	    2.98081 	   -0.07228
   2.23668 	    2.98307 	    0.93872
   2.23666 	    2.98647 	    1.96887
   2.22957 	    2.98547 	    2.98547
   2.22799 	    2.98502 	    3.99542
   2.22798 	    2.98502 	    5.00458
   2.22957 	    2.98547 	    6.01453
   2.23666 	    2.98647 	    7.03112
   2.23668 	    2.98307 	    8.06128
   2.20494 	    2.98081 	    9.07228
   2.20402 	    3.99370 	   -0.07379
   2.23546 	    3.99482 	    0.93671
   2.23520 	    3.99600 	    1.96745
   2.22799 	    3.99542 	    2.98502
   2.22623 	    3.99512 	    3.99512
   2.22623 	    3.99512 	    5.00488
   2.22798 	    3.99542 	    6.01498
   2.23520 	    3.99600 	    7.03255
   2.23546 	    3.99482 	    8.06329
   2.20402 	    3.99370 	    9.07378
   2.20402 	    5.00629 	   -0.07379
   2.23546 	    5.00517 	    0.93671
   2.23520 	    5.00399 	    1.96745
   2.22798 	    5.00458 	    2.98502
   2.22623 	    5.00488 	    3.99512
   2.22623 	    5.00488 	    5.00488
   2.22798 	    5.00458 	    6.01498
   2.23520 	    5.00399 	    7.03255
   2.23546 	    5.00517 	    8.06329
   2.20402 	    5.00629 	    9.07378
   2.20494 	    6.01919 	   -0.07228
   2.23667 	    6.01693 	    0.93872
   2.23666 	    6.01353 	    1.96887
   2.22957 	    6.01453 	    2.98547
   2.22798 	    6.01498 	    3.99542
   2.22798 	    6.01498 	    5.00458
   2.22957 	    6.01453 	    6.01453
   2.23666 	    6.01353 	    7.03112
[...]
POINT_DATA 1000
SCALARS C float
LOOKUP_TABLE default
	      0.7717152
	      0.4419453
	      0.4234427
	      0.4432307
	      0.4281712
	      0.4281687
	      0.4432275
	      0.4234410
	      0.4419381
	      0.7716927
	      0.4419410
	      0.1231711
	      0.1091154
	      0.1277886
	      0.1137296
	      0.1137279
	      0.1277878
	      0.1091177
	      0.1231698
	      0.4419263
	      0.4234367
	      0.1091145
	      0.1009337
	      0.1275733
	      0.1125520
	      0.1125497
	      0.1275718
	      0.1009364
	      0.1091139
	      0.4234208
	      0.4432248
	      0.1277883
	      0.1275742
	      0.1616427
	      0.1462807
	      0.1462782
	      0.1616410
	      0.1275768
	      0.1277876
	      0.4432077
	      0.4281648
	      0.1137295
	      0.1125531
	      0.1462808
	      0.1289570
	      0.1289546
	      0.1462793
	      0.1125559
	      0.1137289
	      0.4281476
	      0.4281616
	      0.1137271
	      0.1125497
	      0.1462771
	      0.1289534
	      0.1289510
	      0.1462755
	      0.1125525
	      0.1137264
	      0.4281443
	      0.4432210
	      0.1277871
	      0.1275721
	      0.1616401
	      0.1462782
	      0.1462756
	      0.1616383
	      0.1275747
	      0.1277863
	      0.4432039
	      0.4234354
	      0.1091175
	      0.1009375
	      0.1275771
	      0.1125560
	      0.1125536
	      0.1275756
	      0.1009402
	      0.1091169
	      0.4234196
	      0.4419320
	      0.1231688
	      0.1091138
	      0.1277869
	      0.1137280
	      0.1137264
	      0.1277861
	      0.1091160
	      0.1231675
	      0.4419173
	      0.7716835
	      0.4419202
	      0.4234153
	      0.4432012
	      0.4281405
	      0.4281379
	      0.4431980
	      0.4234136
	      0.4419131
	      0.7716610
	      0.0649981
	      0.0494758
	      0.0488045
	      0.0533116
	      0.0535541
	      0.0535541
	      0.0533115
	      0.0488043
	      0.0494757
	      0.0649975
	      0.0494760
	      0.0479181
	      0.0475348
	      0.0568008
	      0.0559370
	      0.0559367
	      0.0568007
	      0.0475343
	      0.0479181
	      0.0494756
	      0.0488045
	      0.0475346
	      0.0409556
	      0.0482914
	      0.0466214
	      0.0466210
	      0.0482913
	      0.0409550
	      0.0475348
	      0.0488039
	      0.0533115
	      0.0568006
	      0.0482912
	      0.0550699
	      0.0532026
	      0.0532020
	      0.0550697
	      0.0482904
	      0.0568005
	      0.0533105
	      0.0535540
	      0.0559368
	      0.0466213
	      0.0532026
	      0.0514023
	      0.0514017
	      0.0532024
	      0.0466205
	      0.0559366
	      0.0535531
	      0.0535541
	      0.0559364
	      0.0466207
	      0.0532018
	      0.0514015
	      0.0514009
	      0.0532016
	      0.0466199
	      0.0559362
	      0.0535532
	      0.0533114
	      0.0568004
	      0.0482910
	      0.0550695
	      0.0532022
	      0.0532016
	      0.0550694
	      0.0482902
	      0.0568003
	      0.0533104
	      0.0488041
	      0.0475340
	      0.0409546
	      0.0482901
	      0.0466202
	      0.0466198
	      0.0482900
	      0.0409539
	      0.0475342
	      0.0488036
	      0.0494757
	      0.0479182
	      0.0475344
	      0.0568002
	      0.0559363
	      0.0559360
	      0.0568000
	      0.0475340
	      0.0479183
	      0.0494753
	      0.0649977
	      0.0494756
	      0.0488037
	      0.0533104
	      0.0535531
	      0.0535531
	      0.0533103
	      0.0488036
	      0.0494755
	      0.0649971
	      0.1456793
	      0.1071549
	      0.0976936
	      0.0970805
	      0.0964990
	      0.0964988
	      0.0970799
	      0.0976928
	      0.1071538
	      0.1456770
	      0.1071550
	      0.0816939
	      0.0780564
	      0.0778105
	      0.0771573
	      0.0771570
	      0.0778098
	      0.0780556
	      0.0816937
	      0.1071540
	      0.0976936
	      0.0780563
	      0.0814270
	      0.0780207
	      0.0822327
	      0.0822331
	      0.0780210
	      0.0814261
	      0.0780556
	      0.0976926
	      0.0970802
	      0.0778103
	      0.0780203
	      0.0736249
	      0.0790724
	      0.0790727
	      0.0736249
	      0.0780192
	      0.0778100
	      0.0970791
	      0.0964986
	      0.0771569
	      0.0822323
	      0.0790725
	      0.0853467
	      0.0853469
	      0.0790727
	      0.0822316
	      0.0771564
	      0.0964974
	      0.0964983
	      0.0771566
	      0.0822328
	      0.0790729
	      0.0853471
	      0.0853473
	      0.0790730
	      0.0822320
	      0.0771561
	      0.0964970
	      0.0970794
	      0.0778094
	      0.0780206
	      0.0736249
	      0.0790728
	      0.0790731
	      0.0736250
	      0.0780195
	      0.0778092
	      0.0970782
	      0.0976922
	      0.0780552
	      0.0814255
	      0.0780188
	      0.0822312
	      0.0822316
	      0.0780191
	      0.0814247
	      0.0780545
	      0.0976912
	      0.1071532
	      0.0816937
	      0.0780553
	      0.0778096
	      0.0771560
	      0.0771557
	      0.0778089
	      0.0780545
	      0.0816935
	      0.1071522
	      0.1456765
	      0.1071534
	      0.0976920
	      0.0970786
	      0.0964969
	      0.0964967
	      0.0970780
	      0.0976912
	      0.1071523
	      0.1456743
	      0.1395474
	      0.1101132
	      0.1048215
	      0.1045308
	      0.1045060
	      0.1045058
	      0.1045303
	      0.1048208
	      0.1101124
	      0.1395461
	      0.1101134
	      0.0880664
	      0.0852062
	      0.0837825
	      0.0834076
	      0.0834072
	      0.0837818
	      0.0852055
	      0.0880664
	      0.1101129
	      0.1048217
	      0.0852065
	      0.0927606
	      0.0915318
	      0.0976626
	      0.0976628
	      0.0915314
	      0.0927599
	      0.0852067
	      0.1048207
	      0.1045309
	      0.0837826
	      0.0915315
	      0.0871059
	      0.0929207
	      0.0929206
	      0.0871047
	      0.0915300
	      0.0837832
	      0.1045296
	      0.1045059
	      0.0834076
	      0.0976620
	      0.0929205
	      0.0992493
	      0.0992492
	      0.0929192
	      0.0976608
	      0.0834076
	      0.1045045
	      0.1045055
	      0.0834071
	      0.0976622
	      0.0929202
	      0.0992490
	      0.0992489
	      0.0929190
	      0.0976610
	      0.0834071
	      0.1045041
	      0.1045298
	      0.0837816
	      0.0915308
	      0.0871040
	      0.0929188
	      0.0929187
	      0.0871027
	      0.0915293
	      0.0837821
	      0.1045286
	      0.1048203
	      0.0852054
	      0.0927594
	      0.0915294
	      0.0976603
	      0.0976604
	      0.0915291
	      0.0927587
	      0.0852056
	      0.1048192
	      0.1101118
	      0.0880663
	      0.0852066
	      0.0837830
	      0.0834075
	      0.0834071
	      0.0837823
	      0.0852059
	      0.0880662
	      0.1101112
	      0.1395459
	      0.1101123
	      0.1048201
	      0.1045292
	      0.1045042
	      0.1045039
	      0.1045286
	      0.1048194
	      0.1101115
	      0.1395446
	      0.1156935
	      0.0955898
	      0.0937714
	      0.0953328
	      0.0957177
	      0.0957176
	      0.0953325
	      0.0937710
	      0.0955894
	      0.1156930
	      0.0955902
	      0.0782674
	      0.0760728
	      0.0755832
	      0.0768446
	      0.0768445
	      0.0755829
	      0.0760722
	      0.0782677
	      0.0955905
	      0.0937719
	      0.0760729
	      0.0853923
	      0.0882296
	      0.0902498
	      0.0902491
	      0.0882298
	      0.0853926
	      0.0760725
	      0.0937718
	      0.0953332
	      0.0755832
	      0.0882293
	      0.0881444
	      0.0879944
	      0.0879933
	      0.0881442
	      0.0882295
	      0.0755823
	      0.0953329
	      0.0957180
	      0.0768445
	      0.0902498
	      0.0879946
	      0.0880077
	      0.0880067
	      0.0879946
	      0.0902505
	      0.0768430
	      0.0957177
	      0.0957177
	      0.0768443
	      0.0902489
	      0.0879931
	      0.0880063
	      0.0880052
	      0.0879931
	      0.0902495
	      0.0768429
	      0.0957175
	      0.0953325
	      0.0755826
	      0.0882296
	      0.0881442
	      0.0879943
	      0.0879932
	      0.0881439
	      0.0882298
	      0.0755817
	      0.0953322
	      0.0937708
	      0.0760719
	      0.0853921
	      0.0882294
	      0.0902502
	      0.0902495
	      0.0882295
	      0.0853924
	      0.0760715
	      0.0937708
	      0.0955892
	      0.0782678
	      0.0760722
	      0.0755820
	      0.0768429
	      0.0768428
	      0.0755817
	      0.0760716
	      0.0782680
	      0.0955895
	      0.1156935
	      0.0955903
	      0.0937717
	      0.0953329
	      0.0957179
	      0.0957177
	      0.0953326
	      0.0937713
	      0.0955899
	      0.1156930
	      0.1153516
	      0.0952114
	      0.0933239
	      0.0948701
	      0.0952594
	      0.0952593
	      0.0948698
	      0.0933235
	      0.0952110
	      0.1153511
	      0.0952117
	      0.0754061
	      0.0774778
	      0.0793001
	      0.0805119
	      0.0805118
	      0.0792997
	      0.0774774
	      0.0754062
	      0.0952121
	      0.0933243
	      0.0774779
	      0.0817228
	      0.0850108
	      0.0890413
	      0.0890410
	      0.0850109
	      0.0817226
	      0.0774782
	      0.0933241
	      0.0948705
	      0.0793002
	      0.0850105
	      0.0856680
	      0.0886445
	      0.0886441
	      0.0856677
	      0.0850101
	      0.0793003
	      0.0948700
	      0.0952596
	      0.0805120
	      0.0890410
	      0.0886446
	      0.0924087
	      0.0924084
	      0.0886445
	      0.0890410
	      0.0805119
	      0.0952592
	      0.0952594
	      0.0805119
	      0.0890407
	      0.0886439
	      0.0924082
	      0.0924079
	      0.0886439
	      0.0890407
	      0.0805117
	      0.0952589
	      0.0948697
	      0.0792997
	      0.0850107
	      0.0856676
	      0.0886443
	      0.0886439
	      0.0856673
	      0.0850103
	      0.0792998
	      0.0948693
	      0.0933233
	      0.0774773
	      0.0817221
	      0.0850098
	      0.0890407
	      0.0890405
	      0.0850100
	      0.0817220
	      0.0774776
	      0.0933231
	      0.0952107
	      0.0754065
	      0.0774781
	      0.0793003
	      0.0805120
	      0.0805118
	      0.0792999
	      0.0774777
	      0.0754065
	      0.0952111
	      0.1153516
	      0.0952118
	      0.0933239
	      0.0948700
	      0.0952593
	      0.0952592
	      0.0948697
	      0.0933236
	      0.0952114
	      0.1153511
	      0.1392403
	      0.1099509
	      0.1046718
	      0.1042332
	      0.1041156
	      0.1041153
	      0.1042325
	      0.1046711
	      0.1099501
	      0.1392389
	      0.1099511
	      0.0874966
	      0.0856970
	      0.0851443
	      0.0841832
	      0.0841828
	      0.0851435
	      0.0856964
	      0.0874964
	      0.1099508
	      0.1046720
	      0.0856972
	      0.0916366
	      0.0898800
	      0.0968226
	      0.0968230
	      0.0898797
	      0.0916356
	      0.0856969
	      0.1046712
	      0.1042333
	      0.0851444
	      0.0898797
	      0.0853893
	      0.0930385
	      0.0930389
	      0.0853881
	      0.0898778
	      0.0851445
	      0.1042323
	      0.1041155
	      0.0841830
	      0.0968220
	      0.0930383
	      0.1019072
	      0.1019075
	      0.0930371
	      0.0968204
	      0.0841828
	      0.1041144
	      0.1041150
	      0.0841826
	      0.0968224
	      0.0930385
	      0.1019074
	      0.1019078
	      0.0930374
	      0.0968208
	      0.0841824
	      0.1041140
	      0.1042322
	      0.0851432
	      0.0898791
	      0.0853875
	      0.0930368
	      0.0930372
	      0.0853863
	      0.0898772
	      0.0851433
	      0.1042312
	      0.1046706
	      0.0856962
	      0.0916349
	      0.0898772
	      0.0968198
	      0.0968202
	      0.0898769
	      0.0916339
	      0.0856960
	      0.1046698
	      0.1099496
	      0.0874963
	      0.0856967
	      0.0851442
	      0.0841826
	      0.0841822
	      0.0851434
	      0.0856961
	      0.0874960
	      0.1099492
	      0.1392388
	      0.1099502
	      0.1046707
	      0.1042319
	      0.1041141
	      0.1041139
	      0.1042313
	      0.1046701
	      0.1099494
	      0.1392374
	      0.1460421
	      0.1077183
	      0.0983409
	      0.0976091
	      0.0969919
	      0.0969916
	      0.0976084
	      0.0983401
	      0.1077173
	      0.1460398
	      0.1077184
	      0.0843670
	      0.0768019
	      0.0751753
	      0.0740771
	      0.0740769
	      0.0751745
	      0.0768012
	      0.0843670
	      0.1077172
	      0.0983408
	      0.0768020
	      0.0847933
	      0.0803368
	      0.0830656
	      0.0830655
	      0.0803373
	      0.0847935
	      0.0768010
	      0.0983395
	      0.0976088
	      0.0751749
	      0.0803365
	      0.0751824
	      0.0789374
	      0.0789372
	      0.0751826
	      0.0803365
	      0.0751739
	      0.0976074
	      0.0969915
	      0.0740765
	      0.0830654
	      0.0789375
	      0.0835101
	      0.0835099
	      0.0789379
	      0.0830658
	      0.0740753
	      0.0969901
	      0.0969912
	      0.0740763
	      0.0830653
	      0.0789373
	      0.0835099
	      0.0835097
	      0.0789376
	      0.0830657
	      0.0740751
	      0.0969897
	      0.0976079
	      0.0751740
	      0.0803371
	      0.0751828
	      0.0789379
	      0.0789378
	      0.0751830
	      0.0803371
	      0.0751730
	      0.0976065
	      0.0983395
	      0.0768008
	      0.0847931
	      0.0803363
	      0.0830656
	      0.0830655
	      0.0803368
	      0.0847934
	      0.0767999
	      0.0983382
	      0.1077166
	      0.0843668
	      0.0768006
	      0.0751734
	      0.0740748
	      0.0740746
	      0.0751727
	      0.0767999
	      0.0843667
	      0.1077153
	      0.1460391
	      0.1077165
	      0.0983389
	      0.0976069
	      0.0969896
	      0.0969893
	      0.0976062
	      0.0983381
	      0.1077154
	      0.1460368
	      0.0662692
	      0.0503168
	      0.0496817
	      0.0543827
	      0.0546953
	      0.0546953
	      0.0543825
	      0.0496815
	      0.0503168
	      0.0662687
	      0.0503170
	      0.0474997
	      0.0459854
	      0.0557525
	      0.0564186
	      0.0564182
	      0.0557519
	      0.0459854
	      0.0474996
	      0.0503166
	      0.0496817
	      0.0459853
	      0.0412149
	      0.0490658
	      0.0486142
	      0.0486136
	      0.0490648
	      0.0412148
	      0.0459854
	      0.0496811
	      0.0543826
	      0.0557524
	      0.0490659
	      0.0551870
	      0.0537709
	      0.0537702
	      0.0551858
	      0.0490658
	      0.0557524
	      0.0543815
	      0.0546952
	      0.0564185
	      0.0486142
	      0.0537707
	      0.0517503
	      0.0517496
	      0.0537695
	      0.0486141
	      0.0564185
	      0.0546942
	      0.0546952
	      0.0564179
	      0.0486134
	      0.0537697
	      0.0517493
	      0.0517485
	      0.0537685
	      0.0486133
	      0.0564179
	      0.0546942
	      0.0543824
	      0.0557516
	      0.0490646
	      0.0551853
	      0.0537691
	      0.0537684
	      0.0551842
	      0.0490645
	      0.0557516
	      0.0543814
	      0.0496813
	      0.0459852
	      0.0412148
	      0.0490656
	      0.0486139
	      0.0486133
	      0.0490646
	      0.0412147
	      0.0459853
	      0.0496807
	      0.0503167
	      0.0474997
	      0.0459852
	      0.0557521
	      0.0564182
	      0.0564178
	      0.0557515
	      0.0459852
	      0.0474996
	      0.0503163
	      0.0662689
	      0.0503166
	      0.0496809
	      0.0543814
	      0.0546941
	      0.0546941
	      0.0543812
	      0.0496808
	      0.0503165
	      0.0662684
	      0.7682287
	      0.4388816
	      0.4161329
	      0.4357803
	      0.4227338
	      0.4227313
	      0.4357770
	      0.4161309
	      0.4388745
	      0.7682058
	      0.4388774
	      0.1282519
	      0.1112918
	      0.1304078
	      0.1181182
	      0.1181166
	      0.1304071
	      0.1112938
	      0.1282509
	      0.4388624
	      0.4161269
	      0.1112909
	      0.0995178
	      0.1261277
	      0.1128295
	      0.1128272
	      0.1261263
	      0.0995203
	      0.1112907
	      0.4161107
	      0.4357742
	      0.1304075
	      0.1261285
	      0.1601015
	      0.1466109
	      0.1466084
	      0.1600998
	      0.1261310
	      0.1304071
	      0.4357565
	      0.4227273
	      0.1181182
	      0.1128305
	      0.1466110
	      0.1313967
	      0.1313943
	      0.1466094
	      0.1128332
	      0.1181179
	      0.4227094
	      0.4227241
	      0.1181159
	      0.1128272
	      0.1466073
	      0.1313931
	      0.1313906
	      0.1466057
	      0.1128299
	      0.1181156
	      0.4227062
	      0.4357704
	      0.1304064
	      0.1261266
	      0.1600989
	      0.1466084
	      0.1466058
	      0.1600972
	      0.1261290
	      0.1304060
	      0.4357528
	      0.4161252
	      0.1112936
	      0.0995212
	      0.1261313
	      0.1128332
	      0.1128309
	      0.1261299
	      0.0995238
	      0.1112934
	      0.4161090
	      0.4388683
	      0.1282501
	      0.1112905
	      0.1304065
	      0.1181171
	      0.1181155
	      0.1304058
	      0.1112925
	      0.1282491
	      0.4388532
	      0.7681963
	      0.4388562
	      0.4161050
	      0.4357499
	      0.4227022
	      0.4226997
	      0.4357467
	      0.4161029
	      0.4388491
	      0.7681734
