# vtk DataFile Version 3.0
test_file
ASCII
DATASET POLYDATA
POINTS 1000 float
   0.42500 	   -0.00000 	    0.00000
   0.42500 	   -0.00000 	    1.00000
   0.42500 	    0.00000 	    2.00000
   0.42500 	    0.00000 	    3.00000
   0.42500 	    0.00000 	    4.00000
   0.42500 	    0.00000 	    5.00000
   0.42500 	    0.00000 	    6.00000
   0.42500 	    0.00000 	    7.00000
   0.42500 	   -0.00000 	    8.00000
   0.42500 	    0.00000 	    9.00000
   0.42500 	    1.00000 	    0.00000
   0.42500 	    1.00000 	    1.00000
   0.42500 	    1.00000 	    2.00000
   0.42500 	    1.00000 	    3.00000
   0.42500 	    1.00000 	    4.00000
   0.42500 	    1.00000 	    5.00000
   0.42500 	    1.00000 	    6.00000
   0.42500 	    1.00000 	    7.00000
   0.42500 	    1.00000 	    8.00000
   0.42500 	    1.00000 	    9.00000
   0.42500 	    2.00000 	    0.00000
   0.42500 	    2.00000 	    1.00000
   0.42500 	    2.00000 	    2.00000
   0.42500 	    2.00000 	    3.00000
   0.42500 	    2.00000 	    4.00000
   0.42500 	    2.00000 	    5.00000
   0.42500 	    2.00000 	    6.00000
   0.42500 	    2.00000 	    7.00000
   0.42500 	    2.00000 	    8.00000
   0.42500 	    2.00000 	    9.00000
   0.42500 	    3.00000 	    0.00000
   0.42500 	    3.00000 	    1.00000
   0.42500 	    3.00000 	    2.00000
   0.42500 	    3.00000 	    3.00000
   0.42500 	    3.00000 	    4.00000
   0.42500 	    3.00000 	    5.00000
   0.42500 	    3.00000 	    6.00000
   0.42500 	    3.00000 	    7.00000
   0.42500 	    3.00000 	    8.00000
   0.42500 	    3.00000 	    9.00000
   0.42500 	    4.00000 	    0.00000
   0.42500 	    4.00000 	    1.00000
   0.42500 	    4.00000 	    2.00000
   0.42500 	    4.00000 	    3.00000
   0.42500 	    4.00000 	    4.00000
   0.42500 	    4.00000 	    5.00000
   0.42500 	    4.00000 	    6.00000
   0.42500 	    4.00000 	    7.00000
   0.42500 	    4.00000 	    8.00000
   0.42500 	    4.00000 	    9.00000
   0.42500 	    5.00000 	    0.00000
   0.42500 	    5.00000 	    1.00000
   0.42500 	    5.00000 	    2.00000
   0.42500 	    5.00000 	    3.00000
   0.42500 	    5.00000 	    4.00000
   0.42500 	    5.00000 	    5.00000
   0.42500 	    5.00000 	    6.00000
   0.42500 	    5.00000 	    7.00000
   0.42500 	    5.00000 	    8.00000
   0.42500 	    5.00000 	    9.00000
   0.42500 	    6.00000 	    0.00000
   0.42500 	    6.00000 	    1.00000
   0.42500 	    6.00000 	    2.00000
   0.42500 	    6.00000 	    3.00000
   0.42500 	    6.00000 	    4.00000
   0.42500 	    6.00000 	    5.00000
   0.42500 	    6.00000 	    6.00000
   0.42500 	    6.00000 	    7.00000
   0.42500 	    6.00000 	    8.00000
   0.42500 	    6.00000 	    9.00000
   0.42500 	    7.00000 	    0.00000
   0.42500 	    7.00000 	    1.00000
   0.42500 	    7.00000 	    2.00000
   0.42500 	    7.00000 	    3.00000
   0.42500 	    7.00000 	    4.00000
   0.42500 	    7.00000 	    5.00000
   0.42500 	    7.00000 	    6.00000
   0.42500 	    7.00000 	    7.00000
   0.42500 	    7.00000 	    8.00000
   0.42500 	    7.00000 	    9.00000
   0.42500 	    8.00000 	    0.00000
   0.42500 	    8.00000 	    1.00000
   0.42500 	    8.00000 	    2.00000
   0.42500 	    8.00000 	    3.00000
   0.42500 	    8.00000 	    4.00000
   0.42500 	    8.00000 	    5.00000
   0.42500 	    8.00000 	    6.00000
   0.42500 	    8.00000 	    7.00000
   0.42500 	    8.00000 	    8.00000
   0.42500 	    8.00000 	    9.00000
   0.42500 	    9.00000 	    0.00000
   0.42500 	    9.00000 	    1.00000
   0.42500 	    9.00000 	    2.00000
   0.42500 	    9.00000 	    3.00000
   0.42500 	    9.00000 	    4.00000
   0.42500 	    9.00000 	    5.00000
   0.42500 	    9.00000 	    6.00000
   0.42500 	    9.00000 	    7.00000
   0.42500 	    9.00000 	    8.00000
   0.42500 	    9.00000 	    9.00000
   1.42737 	   -0.07479 	   -0.07479
   1.42159 	   -0.08087 	    0.95799
   1.41913 	   -0.08152 	    1.97814
   1.42179 	   -0.08411 	    2.98224
   1.42017 	   -0.08395 	    3.99315
   1.42017 	   -0.08395 	    5.00685
   1.42179 	   -0.08411 	    6.01776
   1.41913 	   -0.08152 	    7.02186
   1.42159 	   -0.08086 	    8.04201
   1.42737 	   -0.07479 	    9.07479
   1.42159 	    0.95799 	   -0.08087
   1.41643 	    0.94246 	    0.94246
   1.40791 	    0.94719 	    1.97417
   1.40999 	    0.94465 	    2.97149
   1.40924 	    0.94730 	    3.98857
   1.40924 	    0.94730 	    5.01142
   1.40999 	    0.94465 	    6.02851
   1.40791 	    0.94719 	    7.02583
   1.41643 	    0.94246 	    8.05754
   1.42159 	    0.95799 	    9.08086
   1.41913 	    1.97814 	   -0.08152
   1.40791 	    1.97417 	    0.94719
   1.40744 	    1.97542 	    1.97542
   1.40731 	    1.97605 	    2.96474
   1.40902 	    1.97658 	    3.98645
   1.40902 	    1.97658 	    5.01354
   1.40731 	    1.97605 	    6.03525
   1.40744 	    1.97542 	    7.02458
   1.40791 	    1.97417 	    8.05280
   1.41913 	    1.97814 	    9.08151
   1.42179 	    2.98224 	   -0.08411
   1.40999 	    2.97148 	    0.94465
   1.40731 	    2.96474 	    1.97605
   1.40614 	    2.96442 	    2.96442
   1.40779 	    2.96370 	    3.98663
   1.40779 	    2.96370 	    5.01336
   1.40614 	    2.96442 	    6.03558
   1.40731 	    2.96474 	    7.02395
   1.40999 	    2.97148 	    8.05534
   1.42179 	    2.98224 	    9.08410
   1.42017 	    3.99315 	   -0.08395
   1.40924 	    3.98857 	    0.94730
   1.40902 	    3.98645 	    1.97658
   1.40779 	    3.98663 	    2.96370
   1.40925 	    3.98647 	    3.98648
   1.40925 	    3.98647 	    5.01352
   1.40779 	    3.98663 	    6.03629
   1.40902 	    3.98645 	    7.02342
   1.40924 	    3.98857 	    8.05270
   1.42017 	    3.99315 	    9.08395
   1.42017 	    5.00684 	   -0.08395
   1.40924 	    5.01142 	    0.94730
   1.40902 	    5.01354 	    1.97658
   1.40779 	    5.01336 	    2.96370
   1.40925 	    5.01351 	    3.98648
   1.40925 	    5.01351 	    5.01352
   1.40779 	    5.01336 	    6.03629
   1.40902 	    5.01354 	    7.02342
   1.40924 	    5.01142 	    8.05270
   1.42017 	    5.00684 	    9.08395
   1.42179 	    6.01775 	   -0.08410
   1.40999 	    6.02851 	    0.94465
   1.40731 	    6.03525 	    1.97605
   1.40614 	    6.03557 	    2.96442
   1.40779 	    6.03629 	    3.98663
   1.40779 	    6.03629 	    5.01336
   1.40614 	    6.03557 	    6.03557
   1.40731 	    6.03525 	    7.02395
   1.40999 	    6.02851 	    8.05534
   1.42179 	    6.01775 	    9.08410
   1.41913 	    7.02186 	   -0.08152
   1.40791 	    7.02583 	    0.94719
   1.40744 	    7.02458 	    1.97542
   1.40731 	    7.02395 	    2.96475
   1.40902 	    7.02342 	    3.98645
   1.40902 	    7.02342 	    5.01354
   1.40731 	    7.02395 	    6.03525
   1.40744 	    7.02458 	    7.02458
   1.40791 	    7.02583 	    8.05280
   1.41913 	    7.02185 	    9.08151
   1.42159 	    8.04200 	   -0.08086
   1.41643 	    8.05754 	    0.94246
   1.40791 	    8.05280 	    1.97417
   1.40999 	    8.05534 	    2.97149
   1.40924 	    8.05270 	    3.98857
   1.40924 	    8.05270 	    5.01142
   1.40999 	    8.05534 	    6.02851
   1.40791 	    8.05280 	    7.02583
   1.41643 	    8.05753 	    8.05754
   1.42159 	    8.04200 	    9.08086
   1.42737 	    9.07479 	   -0.07478
   1.42159 	    9.08086 	    0.95800
   1.41913 	    9.08151 	    1.97814
   1.42179 	    9.08410 	    2.98224
   1.42017 	    9.08395 	    3.99315
   1.42017 	    9.08395 	    5.00685
   1.42179 	    9.08410 	    6.01775
   1.41913 	    9.08151 	    7.02185
   1.42159 	    9.08086 	    8.04200
   1.42737 	    9.07478 	    9.07478
   2.33026 	   -0.10924 	   -0.10924
   2.34710 	   -0.11492 	    0.91816
   2.35194 	   -0.11974 	    1.94616
   2.35140 	   -0.12427 	    2.96681
   2.34967 	   -0.12672 	    3.98912
   2.34967 	   -0.12672 	    5.01087
   2.35141 	   -0.12427 	    6.03318
   2.35194 	   -0.11974 	    7.05383
   2.34710 	   -0.11491 	    8.08184
   2.33026 	   -0.10924 	    9.10924
   2.34710 	    0.91816 	   -0.11491
   2.38964 	    0.90892 	    0.90892
   2.40290 	    0.90148 	    1.95273
   2.40147 	    0.89782 	    2.97084
   2.39866 	    0.89426 	    3.99110
   2.39866 	    0.89426 	    5.00890
   2.40147 	    0.89782 	    6.02916
   2.40290 	    0.90149 	    7.04727
   2.38964 	    0.90892 	    8.09108
   2.34710 	    0.91816 	    9.11491
   2.35194 	    1.94616 	   -0.11974
   2.40290 	    1.95273 	    0.90149
   2.40491 	    1.94957 	    1.94957
   2.40046 	    1.94923 	    2.97200
   2.39352 	    1.94370 	    3.99201
   2.39352 	    1.94370 	    5.00798
   2.40046 	    1.94923 	    6.02799
   2.40490 	    1.94957 	    7.05043
   2.40290 	    1.95273 	    8.09851
   2.35194 	    1.94617 	    9.11973
   2.35141 	    2.96681 	   -0.12426
   2.40147 	    2.97084 	    0.89782
   2.40046 	    2.97200 	    1.94923
   2.39520 	    2.97121 	    2.97121
   2.38735 	    2.96971 	    3.99138
   2.38735 	    2.96971 	    5.00862
   2.39520 	    2.97121 	    6.02879
   2.40046 	    2.97200 	    7.05076
   2.40147 	    2.97084 	    8.10217
   2.35141 	    2.96681 	    9.12426
   2.34967 	    3.98912 	   -0.12672
   2.39866 	    3.99110 	    0.89427
   2.39352 	    3.99201 	    1.94370
   2.38735 	    3.99138 	    2.96971
   2.37848 	    3.99083 	    3.99083
   2.37848 	    3.99083 	    5.00916
   2.38735 	    3.99138 	    6.03029
   2.39352 	    3.99201 	    7.05629
   2.39866 	    3.99110 	    8.10573
   2.34967 	    3.98912 	    9.12671
   2.34967 	    5.01087 	   -0.12671
   2.39866 	    5.00890 	    0.89427
   2.39352 	    5.00798 	    1.94370
   2.38735 	    5.00862 	    2.96971
   2.37848 	    5.00916 	    3.99083
   2.37848 	    5.00916 	    5.00916
   2.38735 	    5.00862 	    6.03029
   2.39352 	    5.00798 	    7.05629
   2.39866 	    5.00890 	    8.10573
   2.34967 	    5.01087 	    9.12671
   2.35141 	    6.03318 	   -0.12426
   2.40147 	    6.02916 	    0.89782
   2.40046 	    6.02799 	    1.94923
   2.39520 	    6.02879 	    2.97121
   2.38735 	    6.03029 	    3.99138
   2.38735 	    6.03029 	    5.00862
   2.39520 	    6.02879 	    6.02879
   2.40046 	    6.02799 	    7.05076
[...]
POINT_DATA 1000
SCALARS C float
LOOKUP_TABLE default
	      0.9144128
	      0.5225412
	      0.5150290
	      0.5374822
	      0.5133821
	      0.5133797
	      0.5374782
	      0.5150267
	      0.5225339
	      0.9143889
	      0.5225363
	      0.1166536
	      0.1115973
	      0.1365705
	      0.1174872
	      0.1174859
	      0.1365693
	      0.1115997
	      0.1166529
	      0.5225213
	      0.5150224
	      0.1115966
	      0.1098223
	      0.1453031
	      0.1249358
	      0.1249343
	      0.1453012
	      0.1098246
	      0.1115968
	      0.5150055
	      0.5374758
	      0.1365707
	      0.1453041
	      0.1914920
	      0.1711069
	      0.1711053
	      0.1914897
	      0.1453061
	      0.1365707
	      0.5374576
	      0.5133752
	      0.1174874
	      0.1249367
	      0.1711067
	      0.1489960
	      0.1489943
	      0.1711044
	      0.1249388
	      0.1174879
	      0.5133575
	      0.5133721
	      0.1174854
	      0.1249344
	      0.1711040
	      0.1489932
	      0.1489915
	      0.1711017
	      0.1249365
	      0.1174859
	      0.5133544
	      0.5374711
	      0.1365688
	      0.1453014
	      0.1914885
	      0.1711031
	      0.1711015
	      0.1914863
	      0.1453034
	      0.1365689
	      0.5374529
	      0.5150204
	      0.1115999
	      0.1098258
	      0.1453063
	      0.1249389
	      0.1249374
	      0.1453044
	      0.1098281
	      0.1116001
	      0.5150035
	      0.5225273
	      0.1166523
	      0.1115970
	      0.1365702
	      0.1174874
	      0.1174861
	      0.1365690
	      0.1115994
	      0.1166516
	      0.5225123
	      0.9143796
	      0.5225147
	      0.5149992
	      0.5374505
	      0.5133499
	      0.5133474
	      0.5374466
	      0.5149968
	      0.5225074
	      0.9143557
	      0.0729737
	      0.0562566
	      0.0558751
	      0.0609772
	      0.0615902
	      0.0615903
	      0.0609772
	      0.0558751
	      0.0562565
	      0.0729733
	      0.0562568
	      0.0583904
	      0.0583610
	      0.0696490
	      0.0691148
	      0.0691147
	      0.0696492
	      0.0583604
	      0.0583904
	      0.0562566
	      0.0558751
	      0.0583609
	      0.0495325
	      0.0601128
	      0.0586960
	      0.0586956
	      0.0601130
	      0.0495317
	      0.0583609
	      0.0558745
	      0.0609770
	      0.0696486
	      0.0601126
	      0.0717499
	      0.0709175
	      0.0709169
	      0.0717498
	      0.0601116
	      0.0696487
	      0.0609760
	      0.0615902
	      0.0691147
	      0.0586959
	      0.0709176
	      0.0700245
	      0.0700239
	      0.0709175
	      0.0586951
	      0.0691148
	      0.0615893
	      0.0615902
	      0.0691145
	      0.0586953
	      0.0709167
	      0.0700236
	      0.0700229
	      0.0709167
	      0.0586945
	      0.0691146
	      0.0615893
	      0.0609771
	      0.0696488
	      0.0601127
	      0.0717497
	      0.0709173
	      0.0709168
	      0.0717497
	      0.0601117
	      0.0696489
	      0.0609761
	      0.0558749
	      0.0583599
	      0.0495312
	      0.0601114
	      0.0586949
	      0.0586944
	      0.0601115
	      0.0495304
	      0.0583599
	      0.0558743
	      0.0562565
	      0.0583904
	      0.0583605
	      0.0696483
	      0.0691146
	      0.0691144
	      0.0696485
	      0.0583598
	      0.0583904
	      0.0562562
	      0.0729735
	      0.0562565
	      0.0558743
	      0.0609759
	      0.0615893
	      0.0615893
	      0.0609759
	      0.0558743
	      0.0562564
	      0.0729731
	      0.1678032
	      0.1230578
	      0.1118656
	      0.1111607
	      0.1107914
	      0.1107913
	      0.1111604
	      0.1118648
	      0.1230564
	      0.1678008
	      0.1230578
	      0.0961254
	      0.0900010
	      0.0900957
	      0.0899936
	      0.0899935
	      0.0900954
	      0.0900003
	      0.0961246
	      0.1230568
	      0.1118655
	      0.0900008
	      0.0874608
	      0.0846621
	      0.0863292
	      0.0863289
	      0.0846624
	      0.0874594
	      0.0899998
	      0.1118642
	      0.1111604
	      0.0900952
	      0.0846616
	      0.0793427
	      0.0815887
	      0.0815884
	      0.0793438
	      0.0846607
	      0.0900937
	      0.1111589
	      0.1107910
	      0.0899931
	      0.0863288
	      0.0815889
	      0.0853851
	      0.0853850
	      0.0815897
	      0.0863275
	      0.0899915
	      0.1107895
	      0.1107909
	      0.0899929
	      0.0863283
	      0.0815884
	      0.0853848
	      0.0853847
	      0.0815893
	      0.0863271
	      0.0899913
	      0.1107893
	      0.1111598
	      0.0900948
	      0.0846621
	      0.0793441
	      0.0815898
	      0.0815895
	      0.0793451
	      0.0846612
	      0.0900933
	      0.1111583
	      0.1118642
	      0.0899997
	      0.0874585
	      0.0846604
	      0.0863270
	      0.0863267
	      0.0846606
	      0.0874572
	      0.0899987
	      0.1118629
	      0.1230557
	      0.0961246
	      0.0899991
	      0.0900931
	      0.0899908
	      0.0899907
	      0.0900928
	      0.0899984
	      0.0961239
	      0.1230548
	      0.1678002
	      0.1230561
	      0.1118636
	      0.1111584
	      0.1107890
	      0.1107890
	      0.1111580
	      0.1118628
	      0.1230548
	      0.1677978
	      0.1601339
	      0.1262280
	      0.1198494
	      0.1195091
	      0.1196583
	      0.1196582
	      0.1195088
	      0.1198486
	      0.1262269
	      0.1601323
	      0.1262283
	      0.1015418
	      0.0974943
	      0.0957111
	      0.0953912
	      0.0953910
	      0.0957107
	      0.0974937
	      0.1015420
	      0.1262274
	      0.1198495
	      0.0974946
	      0.1170938
	      0.1157823
	      0.1222837
	      0.1222835
	      0.1157823
	      0.1170926
	      0.0974955
	      0.1198480
	      0.1195091
	      0.0957113
	      0.1157817
	      0.1074848
	      0.1135049
	      0.1135046
	      0.1074849
	      0.1157808
	      0.0957120
	      0.1195072
	      0.1196581
	      0.0953913
	      0.1222832
	      0.1135048
	      0.1217618
	      0.1217617
	      0.1135046
	      0.1222817
	      0.0953919
	      0.1196562
	      0.1196579
	      0.0953910
	      0.1222829
	      0.1135044
	      0.1217615
	      0.1217615
	      0.1135041
	      0.1222815
	      0.0953915
	      0.1196559
	      0.1195083
	      0.0957107
	      0.1157818
	      0.1074846
	      0.1135044
	      0.1135040
	      0.1074846
	      0.1157808
	      0.0957113
	      0.1195064
	      0.1198480
	      0.0974935
	      0.1170919
	      0.1157802
	      0.1222811
	      0.1222810
	      0.1157802
	      0.1170906
	      0.0974943
	      0.1198465
	      0.1262262
	      0.1015421
	      0.0974953
	      0.0957119
	      0.0953919
	      0.0953917
	      0.0957116
	      0.0974947
	      0.1015423
	      0.1262254
	      0.1601320
	      0.1262267
	      0.1198474
	      0.1195068
	      0.1196558
	      0.1196557
	      0.1195064
	      0.1198466
	      0.1262256
	      0.1601304
	      0.1311033
	      0.1098424
	      0.1080931
	      0.1099087
	      0.1102575
	      0.1102573
	      0.1099083
	      0.1080927
	      0.1098420
	      0.1311030
	      0.1098429
	      0.0881345
	      0.0890283
	      0.0894803
	      0.0891125
	      0.0891121
	      0.0894797
	      0.0890281
	      0.0881351
	      0.1098435
	      0.1080937
	      0.0890287
	      0.0967118
	      0.0986594
	      0.1072539
	      0.1072554
	      0.0986594
	      0.0967095
	      0.0890295
	      0.1080939
	      0.1099092
	      0.0894808
	      0.0986588
	      0.0939778
	      0.1021847
	      0.1021865
	      0.0939778
	      0.0986562
	      0.0894822
	      0.1099091
	      0.1102578
	      0.0891130
	      0.1072529
	      0.1021844
	      0.1125021
	      0.1125040
	      0.1021841
	      0.1072502
	      0.0891142
	      0.1102576
	      0.1102574
	      0.0891124
	      0.1072547
	      0.1021867
	      0.1125047
	      0.1125066
	      0.1021863
	      0.1072520
	      0.0891136
	      0.1102573
	      0.1099083
	      0.0894799
	      0.0986586
	      0.0939776
	      0.1021843
	      0.1021861
	      0.0939776
	      0.0986560
	      0.0894813
	      0.1099082
	      0.1080926
	      0.0890281
	      0.0967086
	      0.0986554
	      0.1072495
	      0.1072510
	      0.0986553
	      0.0967064
	      0.0890289
	      0.1080927
	      0.1098418
	      0.0881353
	      0.0890295
	      0.0894824
	      0.0891145
	      0.0891140
	      0.0894818
	      0.0890293
	      0.0881359
	      0.1098424
	      0.1311035
	      0.1098434
	      0.1080937
	      0.1099091
	      0.1102578
	      0.1102576
	      0.1099087
	      0.1080933
	      0.1098429
	      0.1311032
	      0.1310483
	      0.1097343
	      0.1079502
	      0.1097177
	      0.1100600
	      0.1100599
	      0.1097173
	      0.1079498
	      0.1097339
	      0.1310480
	      0.1097347
	      0.0878680
	      0.0890682
	      0.0900765
	      0.0902307
	      0.0902303
	      0.0900760
	      0.0890680
	      0.0878684
	      0.1097355
	      0.1079508
	      0.0890685
	      0.0982598
	      0.0993426
	      0.1054875
	      0.1054880
	      0.0993427
	      0.0982586
	      0.0890690
	      0.1079510
	      0.1097182
	      0.0900770
	      0.0993420
	      0.0932532
	      0.0981503
	      0.0981507
	      0.0932531
	      0.0993409
	      0.0900777
	      0.1097183
	      0.1100604
	      0.0902310
	      0.1054868
	      0.0981502
	      0.1051715
	      0.1051720
	      0.0981497
	      0.1054856
	      0.0902314
	      0.1100605
	      0.1100601
	      0.0902305
	      0.1054875
	      0.0981506
	      0.1051721
	      0.1051726
	      0.0981501
	      0.1054862
	      0.0902310
	      0.1100602
	      0.1097174
	      0.0900762
	      0.0993421
	      0.0932529
	      0.0981496
	      0.0981500
	      0.0932529
	      0.0993410
	      0.0900769
	      0.1097175
	      0.1079497
	      0.0890680
	      0.0982579
	      0.0993403
	      0.1054850
	      0.1054856
	      0.0993404
	      0.0982567
	      0.0890684
	      0.1079500
	      0.1097337
	      0.0878686
	      0.0890690
	      0.0900779
	      0.0902316
	      0.0902313
	      0.0900773
	      0.0890687
	      0.0878690
	      0.1097345
	      0.1310486
	      0.1097353
	      0.1079509
	      0.1097183
	      0.1100607
	      0.1100605
	      0.1097180
	      0.1079506
	      0.1097349
	      0.1310483
	      0.1602467
	      0.1263274
	      0.1199969
	      0.1196834
	      0.1198203
	      0.1198202
	      0.1196830
	      0.1199962
	      0.1263265
	      0.1602452
	      0.1263277
	      0.1016136
	      0.0976671
	      0.0960267
	      0.0959403
	      0.0959401
	      0.0960263
	      0.0976665
	      0.1016134
	      0.1263271
	      0.1199971
	      0.0976673
	      0.1156037
	      0.1150172
	      0.1202699
	      0.1202695
	      0.1150170
	      0.1156030
	      0.0976669
	      0.1199958
	      0.1196834
	      0.0960267
	      0.1150169
	      0.1081536
	      0.1128662
	      0.1128652
	      0.1081531
	      0.1150168
	      0.0960259
	      0.1196818
	      0.1198201
	      0.0959401
	      0.1202696
	      0.1128660
	      0.1204893
	      0.1204888
	      0.1128652
	      0.1202692
	      0.0959389
	      0.1198185
	      0.1198199
	      0.0959398
	      0.1202690
	      0.1128648
	      0.1204883
	      0.1204877
	      0.1128641
	      0.1202686
	      0.0959386
	      0.1198182
	      0.1196826
	      0.0960260
	      0.1150165
	      0.1081527
	      0.1128648
	      0.1128639
	      0.1081521
	      0.1150164
	      0.0960251
	      0.1196810
	      0.1199957
	      0.0976661
	      0.1156023
	      0.1150163
	      0.1202687
	      0.1202683
	      0.1150161
	      0.1156017
	      0.0976656
	      0.1199944
	      0.1263258
	      0.1016133
	      0.0976665
	      0.0960256
	      0.0959386
	      0.0959384
	      0.0960252
	      0.0976658
	      0.1016131
	      0.1263252
	      0.1602450
	      0.1263264
	      0.1199952
	      0.1196814
	      0.1198182
	      0.1198180
	      0.1196810
	      0.1199945
	      0.1263254
	      0.1602434
	      0.1683752
	      0.1235675
	      0.1124995
	      0.1118980
	      0.1115021
	      0.1115020
	      0.1118976
	      0.1124987
	      0.1235662
	      0.1683727
	      0.1235675
	      0.0966827
	      0.0905956
	      0.0904117
	      0.0900278
	      0.0900277
	      0.0904112
	      0.0905950
	      0.0966824
	      0.1235659
	      0.1124993
	      0.0905956
	      0.0856926
	      0.0849288
	      0.0877879
	      0.0877885
	      0.0849291
	      0.0856918
	      0.0905959
	      0.1124973
	      0.1118977
	      0.0904114
	      0.0849284
	      0.0831338
	      0.0874129
	      0.0874134
	      0.0831346
	      0.0849279
	      0.0904114
	      0.1118954
	      0.1115016
	      0.0900275
	      0.0877875
	      0.0874130
	      0.0940279
	      0.0940288
	      0.0874139
	      0.0877871
	      0.0900273
	      0.1114993
	      0.1115014
	      0.0900273
	      0.0877883
	      0.0874138
	      0.0940291
	      0.0940300
	      0.0874147
	      0.0877878
	      0.0900270
	      0.1114991
	      0.1118970
	      0.0904108
	      0.0849288
	      0.0831349
	      0.0874142
	      0.0874148
	      0.0831357
	      0.0849284
	      0.0904108
	      0.1118947
	      0.1124979
	      0.0905946
	      0.0856914
	      0.0849277
	      0.0877869
	      0.0877875
	      0.0849280
	      0.0856906
	      0.0905949
	      0.1124960
	      0.1235654
	      0.0966825
	      0.0905955
	      0.0904110
	      0.0900269
	      0.0900267
	      0.0904105
	      0.0905949
	      0.0966822
	      0.1235638
	      0.1683720
	      0.1235651
	      0.1124966
	      0.1118948
	      0.1114987
	      0.1114986
	      0.1118943
	      0.1124958
	      0.1235638
	      0.1683694
	      0.0737756
	      0.0568049
	      0.0564448
	      0.0616084
	      0.0621898
	      0.0621898
	      0.0616083
	      0.0564447
	      0.0568049
	      0.0737752
	      0.0568051
	      0.0584279
	      0.0582776
	      0.0696233
	      0.0688172
	      0.0688170
	      0.0696229
	      0.0582773
	      0.0584277
	      0.0568050
	      0.0564449
	      0.0582774
	      0.0499236
	      0.0595097
	      0.0573587
	      0.0573580
	      0.0595087
	      0.0499233
	      0.0582771
	      0.0564446
	      0.0616084
	      0.0696230
	      0.0595098
	      0.0679374
	      0.0651731
	      0.0651721
	      0.0679360
	      0.0595093
	      0.0696226
	      0.0616077
	      0.0621898
	      0.0688170
	      0.0573587
	      0.0651729
	      0.0616540
	      0.0616529
	      0.0651712
	      0.0573583
	      0.0688167
	      0.0621892
	      0.0621898
	      0.0688166
	      0.0573576
	      0.0651715
	      0.0616524
	      0.0616513
	      0.0651698
	      0.0573572
	      0.0688163
	      0.0621892
	      0.0616082
	      0.0696224
	      0.0595083
	      0.0679353
	      0.0651706
	      0.0651696
	      0.0679338
	      0.0595078
	      0.0696219
	      0.0616076
	      0.0564446
	      0.0582769
	      0.0499230
	      0.0595090
	      0.0573580
	      0.0573572
	      0.0595079
	      0.0499228
	      0.0582766
	      0.0564443
	      0.0568049
	      0.0584277
	      0.0582767
	      0.0696221
	      0.0688163
	      0.0688161
	      0.0696216
	      0.0582764
	      0.0584275
	      0.0568048
	      0.0737756
	      0.0568050
	      0.0564445
	      0.0616076
	      0.0621892
	      0.0621892
	      0.0616075
	      0.0564444
	      0.0568050
	      0.0737752
	      0.9148930
	      0.5218106
	      0.5130318
	      0.5364090
	      0.5126498
	      0.5126479
	      0.5364052
	      0.5130284
	      0.5218032
	      0.9148690
	      0.5218058
	      0.1191465
	      0.1130263
	      0.1383937
	      0.1193830
	      0.1193826
	      0.1383933
	      0.1130277
	      0.1191464
	      0.5217907
	      0.5130253
	      0.1130256
	      0.1104059
	      0.1461492
	      0.1255218
	      0.1255210
	      0.1461481
	      0.1104072
	      0.1130260
	      0.5130085
	      0.5364025
	      0.1383936
	      0.1461498
	      0.1925410
	      0.1715244
	      0.1715234
	      0.1925396
	      0.1461508
	      0.1383937
	      0.5363845
	      0.5126429
	      0.1193831
	      0.1255224
	      0.1715242
	      0.1482602
	      0.1482593
	      0.1715228
	      0.1255237
	      0.1193836
	      0.5126252
	      0.5126403
	      0.1193822
	      0.1255210
	      0.1715225
	      0.1482585
	      0.1482576
	      0.1715211
	      0.1255223
	      0.1193828
	      0.5126226
	      0.5363981
	      0.1383930
	      0.1461483
	      0.1925387
	      0.1715219
	      0.1715210
	      0.1925373
	      0.1461493
	      0.1383931
	      0.5363800
	      0.5130221
	      0.1130277
	      0.1104079
	      0.1461510
	      0.1255238
	      0.1255230
	      0.1461499
	      0.1104092
	      0.1130281
	      0.5130052
	      0.5217966
	      0.1191461
	      0.1130260
	      0.1383934
	      0.1193833
	      0.1193828
	      0.1383930
	      0.1130275
	      0.1191460
	      0.5217815
	      0.9148593
	      0.5217841
	      0.5130021
	      0.5363774
	      0.5126176
	      0.5126156
	      0.5363736
	      0.5129988
	      0.5217767
	      0.9148352
