# vtk DataFile Version 3.0
test_file
ASCII
DATASET POLYDATA
POINTS 1000 float
   0.57500 	   -0.00000 	    0.00000
   0.57500 	   -0.00000 	    1.00000
   0.57500 	    0.00000 	    2.00000
   0.57500 	    0.00000 	    3.00000
   0.57500 	    0.00000 	    4.00000
   0.57500 	    0.00000 	    5.00000
   0.57500 	    0.00000 	    6.00000
   0.57500 	    0.00000 	    7.00000
   0.57500 	   -0.00000 	    8.00000
   0.57500 	    0.00000 	    9.00000
   0.57500 	    1.00000 	    0.00000
   0.57500 	    1.00000 	    1.00000
   0.57500 	    1.00000 	    2.00000
   0.57500 	    1.00000 	    3.00000
   0.57500 	    1.00000 	    4.00000
   0.57500 	    1.00000 	    5.00000
   0.57500 	    1.00000 	    6.00000
   0.57500 	    1.00000 	    7.00000
   0.57500 	    1.00000 	    8.00000
   0.57500 	    1.00000 	    9.00000
   0.57500 	    2.00000 	    0.00000
   0.57500 	    2.00000 	    1.00000
   0.57500 	    2.00000 	    2.00000
   0.57500 	    2.00000 	    3.00000
   0.57500 	    2.00000 	    4.00000
   0.57500 	    2.00000 	    5.00000
   0.57500 	    2.00000 	    6.00000
   0.57500 	    2.00000 	    7.00000
   0.57500 	    2.00000 	    8.00000
   0.57500 	    2.00000 	    9.00000
   0.57500 	    3.00000 	    0.00000
   0.57500 	    3.00000 	    1.00000
   0.57500 	    3.00000 	    2.00000
   0.57500 	    3.00000 	    3.00000
   0.57500 	    3.00000 	    4.00000
   0.57500 	    3.00000 	    5.00000
   0.57500 	    3.00000 	    6.00000
   0.57500 	    3.00000 	    7.00000
   0.57500 	    3.00000 	    8.00000
   0.57500 	    3.00000 	    9.00000
   0.57500 	    4.00000 	    0.00000
   0.57500 	    4.00000 	    1.00000
   0.57500 	    4.00000 	    2.00000
   0.57500 	    4.00000 	    3.00000
   0.57500 	    4.00000 	    4.00000
   0.57500 	    4.00000 	    5.00000
   0.57500 	    4.00000 	    6.00000
   0.57500 	    4.00000 	    7.00000
   0.57500 	    4.00000 	    8.00000
   0.57500 	    4.00000 	    9.00000
   0.57500 	    5.00000 	    0.00000
   0.57500 	    5.00000 	    1.00000
   0.57500 	    5.00000 	    2.00000
   0.57500 	    5.00000 	    3.00000
   0.57500 	    5.00000 	    4.00000
   0.57500 	    5.00000 	    5.00000
   0.57500 	    5.00000 	    6.00000
   0.57500 	    5.00000 	    7.00000
   0.57500 	    5.00000 	    8.00000
   0.57500 	    5.00000 	    9.00000
   0.57500 	    6.00000 	    0.00000
   0.57500 	    6.00000 	    1.00000
   0.57500 	    6.00000 	    2.00000
   0.57500 	    6.00000 	    3.00000
   0.57500 	    6.00000 	    4.00000
   0.57500 	    6.00000 	    5.00000
   0.57500 	    6.00000 	    6.00000
   0.57500 	    6.00000 	    7.00000
   0.57500 	    6.00000 	    8.00000
   0.57500 	    6.00000 	    9.00000
   0.57500 	    7.00000 	    0.00000
   0.57500 	    7.00000 	    1.00000
   0.57500 	    7.00000 	    2.00000
   0.57500 	    7.00000 	    3.00000
   0.57500 	    7.00000 	    4.00000
   0.57500 	    7.00000 	    5.00000
   0.57500 	    7.00000 	    6.00000
   0.57500 	    7.00000 	    7.00000
   0.57500 	    7.00000 	    8.00000
   0.57500 	    7.00000 	    9.00000
   0.57500 	    8.00000 	    0.00000
   0.57500 	    8.00000 	    1.00000
   0.57500 	    8.00000 	    2.00000
   0.57500 	    8.00000 	    3.00000
   0.57500 	    8.00000 	    4.00000
   0.57500 	    8.00000 	    5.00000
   0.57500 	    8.00000 	    6.00000
   0.57500 	    8.00000 	    7.00000
   0.57500 	    8.00000 	    8.00000
   0.57500 	    8.00000 	    9.00000
   0.57500 	    9.00000 	    0.00000
   0.57500 	    9.00000 	    1.00000
   0.57500 	    9.00000 	    2.00000
   0.57500 	    9.00000 	    3.00000
   0.57500 	    9.00000 	    4.00000
   0.57500 	    9.00000 	    5.00000
   0.57500 	    9.00000 	    6.00000
   0.57500 	    9.00000 	    7.00000
   0.57500 	    9.00000 	    8.00000
   0.57500 	    9.00000 	    9.00000
   1.58241 	   -0.10303 	   -0.10303
   1.57409 	   -0.11137 	    0.94341
   1.57152 	   -0.11187 	    1.97005
   1.57556 	   -0.11530 	    2.97586
   1.57293 	   -0.11501 	    3.99081
   1.57293 	   -0.11500 	    5.00919
   1.57556 	   -0.11530 	    6.02414
   1.57152 	   -0.11187 	    7.02995
   1.57409 	   -0.11137 	    8.05659
   1.58241 	   -0.10303 	    9.10303
   1.57409 	    0.94341 	   -0.11137
   1.56157 	    0.92296 	    0.92296
   1.55152 	    0.93016 	    1.96247
   1.55426 	    0.92680 	    2.96213
   1.55287 	    0.93031 	    3.98508
   1.55287 	    0.93031 	    5.01492
   1.55426 	    0.92680 	    6.03786
   1.55152 	    0.93016 	    7.03752
   1.56157 	    0.92296 	    8.07704
   1.57409 	    0.94341 	    9.11137
   1.57152 	    1.97005 	   -0.11187
   1.55152 	    1.96247 	    0.93016
   1.55308 	    1.96456 	    1.96456
   1.55275 	    1.96502 	    2.95467
   1.55446 	    1.96590 	    3.98214
   1.55446 	    1.96590 	    5.01785
   1.55275 	    1.96502 	    6.04533
   1.55308 	    1.96457 	    7.03543
   1.55152 	    1.96247 	    8.06983
   1.57152 	    1.97005 	    9.11186
   1.57556 	    2.97586 	   -0.11530
   1.55426 	    2.96213 	    0.92680
   1.55275 	    2.95466 	    1.96502
   1.55069 	    2.95377 	    2.95377
   1.55228 	    2.95304 	    3.98201
   1.55228 	    2.95304 	    5.01798
   1.55069 	    2.95377 	    6.04622
   1.55275 	    2.95466 	    7.03498
   1.55426 	    2.96213 	    8.07320
   1.57556 	    2.97586 	    9.11530
   1.57293 	    3.99081 	   -0.11500
   1.55287 	    3.98507 	    0.93031
   1.55446 	    3.98214 	    1.96590
   1.55228 	    3.98201 	    2.95304
   1.55384 	    3.98183 	    3.98183
   1.55384 	    3.98183 	    5.01816
   1.55228 	    3.98201 	    6.04695
   1.55446 	    3.98214 	    7.03410
   1.55287 	    3.98507 	    8.06968
   1.57293 	    3.99081 	    9.11500
   1.57293 	    5.00919 	   -0.11500
   1.55287 	    5.01491 	    0.93032
   1.55446 	    5.01785 	    1.96590
   1.55228 	    5.01798 	    2.95304
   1.55384 	    5.01816 	    3.98183
   1.55384 	    5.01816 	    5.01816
   1.55228 	    5.01798 	    6.04695
   1.55446 	    5.01785 	    7.03410
   1.55287 	    5.01491 	    8.06968
   1.57293 	    5.00919 	    9.11500
   1.57556 	    6.02414 	   -0.11530
   1.55426 	    6.03786 	    0.92680
   1.55275 	    6.04533 	    1.96502
   1.55069 	    6.04622 	    2.95377
   1.55228 	    6.04695 	    3.98202
   1.55228 	    6.04695 	    5.01798
   1.55069 	    6.04622 	    6.04622
   1.55275 	    6.04532 	    7.03498
   1.55426 	    6.03786 	    8.07320
   1.57556 	    6.02414 	    9.11530
   1.57152 	    7.02995 	   -0.11186
   1.55152 	    7.03752 	    0.93016
   1.55308 	    7.03543 	    1.96457
   1.55275 	    7.03498 	    2.95467
   1.55446 	    7.03410 	    3.98214
   1.55446 	    7.03410 	    5.01785
   1.55275 	    7.03498 	    6.04533
   1.55308 	    7.03543 	    7.03543
   1.55151 	    7.03752 	    8.06983
   1.57152 	    7.02995 	    9.11186
   1.57409 	    8.05659 	   -0.11137
   1.56157 	    8.07704 	    0.92296
   1.55152 	    8.06983 	    1.96247
   1.55426 	    8.07320 	    2.96213
   1.55287 	    8.06968 	    3.98508
   1.55287 	    8.06968 	    5.01492
   1.55426 	    8.07320 	    6.03786
   1.55151 	    8.06983 	    7.03752
   1.56157 	    8.07703 	    8.07704
   1.57409 	    8.05658 	    9.11137
   1.58241 	    9.10303 	   -0.10303
   1.57409 	    9.11137 	    0.94341
   1.57152 	    9.11186 	    1.97005
   1.57556 	    9.11530 	    2.97586
   1.57293 	    9.11500 	    3.99081
   1.57293 	    9.11500 	    5.00919
   1.57556 	    9.11529 	    6.02414
   1.57152 	    9.11186 	    7.02995
   1.57409 	    9.11136 	    8.05658
   1.58241 	    9.10303 	    9.10303
   2.44721 	   -0.15054 	   -0.15054
   2.47030 	   -0.15825 	    0.88794
   2.47730 	   -0.16427 	    1.92616
   2.47695 	   -0.17017 	    2.95453
   2.47453 	   -0.17350 	    3.98510
   2.47453 	   -0.17350 	    5.01489
   2.47695 	   -0.17017 	    6.04546
   2.47730 	   -0.16426 	    7.07383
   2.47030 	   -0.15825 	    8.11206
   2.44721 	   -0.15054 	    9.15054
   2.47030 	    0.88794 	   -0.15825
   2.52522 	    0.87500 	    0.87500
   2.54190 	    0.86647 	    1.93273
   2.54159 	    0.86118 	    2.95966
   2.53770 	    0.85609 	    3.98737
   2.53770 	    0.85609 	    5.01263
   2.54159 	    0.86118 	    6.04033
   2.54189 	    0.86647 	    7.06726
   2.52522 	    0.87500 	    8.12499
   2.47030 	    0.88794 	    9.15824
   2.47730 	    1.92616 	   -0.16426
   2.54190 	    1.93273 	    0.86647
   2.54800 	    1.93270 	    1.93270
   2.54318 	    1.93011 	    2.95948
   2.53543 	    1.92465 	    3.98728
   2.53543 	    1.92465 	    5.01271
   2.54318 	    1.93011 	    6.04052
   2.54799 	    1.93270 	    7.06729
   2.54190 	    1.93273 	    8.13352
   2.47730 	    1.92617 	    9.16426
   2.47695 	    2.95453 	   -0.17017
   2.54159 	    2.95966 	    0.86119
   2.54318 	    2.95948 	    1.93012
   2.53644 	    2.95901 	    2.95902
   2.52836 	    2.95597 	    3.98706
   2.52836 	    2.95597 	    5.01293
   2.53644 	    2.95901 	    6.04098
   2.54318 	    2.95948 	    7.06988
   2.54160 	    2.95966 	    8.13881
   2.47695 	    2.95453 	    9.17016
   2.47453 	    3.98510 	   -0.17350
   2.53770 	    3.98737 	    0.85609
   2.53543 	    3.98728 	    1.92465
   2.52836 	    3.98706 	    2.95598
   2.51888 	    3.98606 	    3.98606
   2.51889 	    3.98606 	    5.01393
   2.52836 	    3.98706 	    6.04402
   2.53543 	    3.98728 	    7.07534
   2.53770 	    3.98737 	    8.14390
   2.47454 	    3.98510 	    9.17349
   2.47453 	    5.01489 	   -0.17350
   2.53770 	    5.01263 	    0.85609
   2.53543 	    5.01271 	    1.92465
   2.52836 	    5.01293 	    2.95597
   2.51889 	    5.01393 	    3.98606
   2.51889 	    5.01393 	    5.01393
   2.52836 	    5.01293 	    6.04402
   2.53543 	    5.01271 	    7.07534
   2.53770 	    5.01263 	    8.14390
   2.47454 	    5.01489 	    9.17349
   2.47695 	    6.04546 	   -0.17017
   2.54159 	    6.04033 	    0.86119
   2.54318 	    6.04052 	    1.93012
   2.53644 	    6.04098 	    2.95902
   2.52836 	    6.04402 	    3.98706
   2.52836 	    6.04402 	    5.01293
   2.53644 	    6.04098 	    6.04098
   2.54318 	    6.04052 	    7.06988
[...]
POINT_DATA 1000
SCALARS C float
LOOKUP_TABLE default
	      1.0393451
	      0.5931497
	      0.5913197
	      0.6157267
	      0.5860892
	      0.5860864
	      0.6157223
	      0.5913178
	      0.5931421
	      1.0393197
	      0.5931443
	      0.1162430
	      0.1162901
	      0.1469690
	      0.1236496
	      0.1236478
	      0.1469673
	      0.1162934
	      0.1162425
	      0.5931284
	      0.5913125
	      0.1162894
	      0.1191890
	      0.1636815
	      0.1380557
	      0.1380533
	      0.1636790
	      0.1191926
	      0.1162902
	      0.5912938
	      0.6157198
	      0.1469694
	      0.1636829
	      0.2211923
	      0.1940188
	      0.1940161
	      0.2211893
	      0.1636861
	      0.1469699
	      0.6156996
	      0.5860818
	      0.1236499
	      0.1380570
	      0.1940187
	      0.1628970
	      0.1628942
	      0.1940156
	      0.1380604
	      0.1236509
	      0.5860621
	      0.5860783
	      0.1236472
	      0.1380535
	      0.1940146
	      0.1628927
	      0.1628899
	      0.1940115
	      0.1380569
	      0.1236482
	      0.5860585
	      0.6157147
	      0.1469668
	      0.1636793
	      0.2211878
	      0.1940140
	      0.1940113
	      0.2211848
	      0.1636826
	      0.1469673
	      0.6156944
	      0.5913110
	      0.1162939
	      0.1191942
	      0.1636864
	      0.1380606
	      0.1380582
	      0.1636840
	      0.1191978
	      0.1162946
	      0.5912923
	      0.5931350
	      0.1162420
	      0.1162906
	      0.1469694
	      0.1236504
	      0.1236485
	      0.1469677
	      0.1162940
	      0.1162416
	      0.5931191
	      1.0393104
	      0.5931213
	      0.5912870
	      0.6156920
	      0.5860539
	      0.5860511
	      0.6156876
	      0.5912851
	      0.5931137
	      1.0392851
	      0.0814847
	      0.0628872
	      0.0627462
	      0.0686026
	      0.0693598
	      0.0693598
	      0.0686026
	      0.0627461
	      0.0628870
	      0.0814842
	      0.0628874
	      0.0669012
	      0.0672256
	      0.0794807
	      0.0788081
	      0.0788079
	      0.0794807
	      0.0672250
	      0.0669011
	      0.0628869
	      0.0627461
	      0.0672253
	      0.0548088
	      0.0656176
	      0.0629324
	      0.0629321
	      0.0656179
	      0.0548080
	      0.0672252
	      0.0627453
	      0.0686024
	      0.0794802
	      0.0656173
	      0.0766157
	      0.0737637
	      0.0737633
	      0.0766159
	      0.0656164
	      0.0794800
	      0.0686011
	      0.0693597
	      0.0788079
	      0.0629323
	      0.0737638
	      0.0707033
	      0.0707029
	      0.0737640
	      0.0629315
	      0.0788076
	      0.0693584
	      0.0693597
	      0.0788077
	      0.0629319
	      0.0737632
	      0.0707027
	      0.0707022
	      0.0737634
	      0.0629311
	      0.0788074
	      0.0693584
	      0.0686024
	      0.0794804
	      0.0656177
	      0.0766159
	      0.0737639
	      0.0737635
	      0.0766160
	      0.0656168
	      0.0794802
	      0.0686011
	      0.0627459
	      0.0672245
	      0.0548075
	      0.0656162
	      0.0629313
	      0.0629310
	      0.0656165
	      0.0548067
	      0.0672243
	      0.0627450
	      0.0628869
	      0.0669011
	      0.0672247
	      0.0794796
	      0.0788073
	      0.0788071
	      0.0794797
	      0.0672241
	      0.0669009
	      0.0628864
	      0.0814844
	      0.0628868
	      0.0627450
	      0.0686009
	      0.0693583
	      0.0693583
	      0.0686009
	      0.0627450
	      0.0628866
	      0.0814839
	      0.1868902
	      0.1372460
	      0.1247890
	      0.1237848
	      0.1231698
	      0.1231697
	      0.1237844
	      0.1247882
	      0.1372447
	      0.1868879
	      0.1372461
	      0.1089023
	      0.1023902
	      0.1019524
	      0.1010752
	      0.1010751
	      0.1019519
	      0.1023895
	      0.1089012
	      0.1372454
	      0.1247890
	      0.1023900
	      0.1033174
	      0.0989046
	      0.1045841
	      0.1045836
	      0.0989051
	      0.1033163
	      0.1023888
	      0.1247881
	      0.1237846
	      0.1019518
	      0.0989039
	      0.0930037
	      0.1003638
	      0.1003640
	      0.0930046
	      0.0989020
	      0.1019503
	      0.1237835
	      0.1231695
	      0.1010746
	      0.1045837
	      0.1003642
	      0.1080356
	      0.1080353
	      0.1003648
	      0.1045826
	      0.1010730
	      0.1231684
	      0.1231693
	      0.1010745
	      0.1045830
	      0.1003640
	      0.1080352
	      0.1080349
	      0.1003646
	      0.1045818
	      0.1010729
	      0.1231681
	      0.1237839
	      0.1019511
	      0.0989049
	      0.0930048
	      0.1003648
	      0.1003650
	      0.0930058
	      0.0989030
	      0.1019496
	      0.1237828
	      0.1247877
	      0.1023887
	      0.1033154
	      0.0989017
	      0.1045819
	      0.1045815
	      0.0989023
	      0.1033143
	      0.1023875
	      0.1247867
	      0.1372440
	      0.1089012
	      0.1023881
	      0.1019495
	      0.1010724
	      0.1010723
	      0.1019491
	      0.1023873
	      0.1089002
	      0.1372433
	      0.1868875
	      0.1372448
	      0.1247875
	      0.1237830
	      0.1231680
	      0.1231679
	      0.1237826
	      0.1247867
	      0.1372434
	      0.1868852
	      0.1778106
	      0.1404352
	      0.1333065
	      0.1328862
	      0.1330386
	      0.1330385
	      0.1328858
	      0.1333057
	      0.1404341
	      0.1778090
	      0.1404355
	      0.1136102
	      0.1095498
	      0.1080239
	      0.1075215
	      0.1075215
	      0.1080237
	      0.1095493
	      0.1136104
	      0.1404348
	      0.1333067
	      0.1095502
	      0.1304291
	      0.1257964
	      0.1373501
	      0.1373501
	      0.1257967
	      0.1304268
	      0.1095507
	      0.1333055
	      0.1328862
	      0.1080240
	      0.1257954
	      0.1110229
	      0.1228123
	      0.1228127
	      0.1110237
	      0.1257932
	      0.1080245
	      0.1328848
	      0.1330385
	      0.1075216
	      0.1373493
	      0.1228125
	      0.1362194
	      0.1362192
	      0.1228128
	      0.1373474
	      0.1075218
	      0.1330370
	      0.1330383
	      0.1075216
	      0.1373492
	      0.1228127
	      0.1362191
	      0.1362189
	      0.1228129
	      0.1373473
	      0.1075217
	      0.1330367
	      0.1328854
	      0.1080236
	      0.1257962
	      0.1110236
	      0.1228127
	      0.1228132
	      0.1110245
	      0.1257941
	      0.1080240
	      0.1328840
	      0.1333052
	      0.1095492
	      0.1304257
	      0.1257927
	      0.1373466
	      0.1373466
	      0.1257931
	      0.1304234
	      0.1095497
	      0.1333040
	      0.1404334
	      0.1136106
	      0.1095506
	      0.1080244
	      0.1075218
	      0.1075218
	      0.1080242
	      0.1095500
	      0.1136108
	      0.1404327
	      0.1778087
	      0.1404342
	      0.1333049
	      0.1328844
	      0.1330368
	      0.1330366
	      0.1328840
	      0.1333042
	      0.1404330
	      0.1778071
	      0.1445478
	      0.1221352
	      0.1203344
	      0.1225356
	      0.1230776
	      0.1230775
	      0.1225353
	      0.1203340
	      0.1221346
	      0.1445475
	      0.1221357
	      0.0980085
	      0.0981106
	      0.0990971
	      0.0985275
	      0.0985272
	      0.0990969
	      0.0981103
	      0.0980091
	      0.1221363
	      0.1203350
	      0.0981110
	      0.1156637
	      0.1166900
	      0.1234467
	      0.1234457
	      0.1166891
	      0.1156631
	      0.0981118
	      0.1203351
	      0.1225362
	      0.0990976
	      0.1166895
	      0.1067659
	      0.1131015
	      0.1131003
	      0.1067654
	      0.1166899
	      0.0990983
	      0.1225360
	      0.1230780
	      0.0985280
	      0.1234463
	      0.1131015
	      0.1227281
	      0.1227264
	      0.1131004
	      0.1234468
	      0.0985277
	      0.1230778
	      0.1230777
	      0.0985275
	      0.1234451
	      0.1130999
	      0.1227258
	      0.1227241
	      0.1130988
	      0.1234455
	      0.0985272
	      0.1230775
	      0.1225353
	      0.0990970
	      0.1166888
	      0.1067650
	      0.1131001
	      0.1130989
	      0.1067644
	      0.1166892
	      0.0990977
	      0.1225352
	      0.1203338
	      0.0981103
	      0.1156624
	      0.1166896
	      0.1234461
	      0.1234451
	      0.1166887
	      0.1156617
	      0.0981111
	      0.1203339
	      0.1221344
	      0.0980095
	      0.0981118
	      0.0990984
	      0.0985279
	      0.0985277
	      0.0990982
	      0.0981115
	      0.0980101
	      0.1221351
	      0.1445481
	      0.1221362
	      0.1203350
	      0.1225360
	      0.1230780
	      0.1230779
	      0.1225357
	      0.1203345
	      0.1221356
	      0.1445477
	      0.1444824
	      0.1221304
	      0.1203808
	      0.1225684
	      0.1230761
	      0.1230759
	      0.1225680
	      0.1203804
	      0.1221299
	      0.1444822
	      0.1221309
	      0.0980720
	      0.0985137
	      0.0992251
	      0.0983795
	      0.0983792
	      0.0992247
	      0.0985135
	      0.0980725
	      0.1221318
	      0.1203815
	      0.0985142
	      0.1150148
	      0.1161719
	      0.1248926
	      0.1248927
	      0.1161714
	      0.1150136
	      0.0985141
	      0.1203818
	      0.1225690
	      0.0992255
	      0.1161713
	      0.1072198
	      0.1162464
	      0.1162466
	      0.1072198
	      0.1161708
	      0.0992253
	      0.1225691
	      0.1230765
	      0.0983797
	      0.1248921
	      0.1162465
	      0.1286626
	      0.1286625
	      0.1162461
	      0.1248919
	      0.0983787
	      0.1230766
	      0.1230761
	      0.0983792
	      0.1248921
	      0.1162466
	      0.1286624
	      0.1286623
	      0.1162462
	      0.1248919
	      0.0983782
	      0.1230762
	      0.1225681
	      0.0992246
	      0.1161710
	      0.1072196
	      0.1162461
	      0.1162463
	      0.1072196
	      0.1161705
	      0.0992244
	      0.1225682
	      0.1203803
	      0.0985133
	      0.1150129
	      0.1161704
	      0.1248913
	      0.1248914
	      0.1161699
	      0.1150117
	      0.0985132
	      0.1203806
	      0.1221298
	      0.0980726
	      0.0985139
	      0.0992252
	      0.0983788
	      0.0983784
	      0.0992248
	      0.0985137
	      0.0980731
	      0.1221307
	      0.1444829
	      0.1221317
	      0.1203817
	      0.1225691
	      0.1230768
	      0.1230766
	      0.1225688
	      0.1203813
	      0.1221312
	      0.1444827
	      0.1778643
	      0.1405249
	      0.1334520
	      0.1330413
	      0.1331796
	      0.1331794
	      0.1330408
	      0.1334513
	      0.1405239
	      0.1778628
	      0.1405252
	      0.1137271
	      0.1097045
	      0.1079521
	      0.1073868
	      0.1073866
	      0.1079517
	      0.1097040
	      0.1137271
	      0.1405247
	      0.1334522
	      0.1097048
	      0.1295440
	      0.1250801
	      0.1369118
	      0.1369126
	      0.1250805
	      0.1295419
	      0.1097051
	      0.1334511
	      0.1330413
	      0.1079522
	      0.1250793
	      0.1107151
	      0.1227361
	      0.1227376
	      0.1107158
	      0.1250771
	      0.1079526
	      0.1330400
	      0.1331795
	      0.1073868
	      0.1369110
	      0.1227361
	      0.1359064
	      0.1359075
	      0.1227360
	      0.1369089
	      0.1073872
	      0.1331780
	      0.1331792
	      0.1073866
	      0.1369118
	      0.1227376
	      0.1359078
	      0.1359089
	      0.1227374
	      0.1369097
	      0.1073870
	      0.1331777
	      0.1330404
	      0.1079516
	      0.1250800
	      0.1107155
	      0.1227359
	      0.1227374
	      0.1107161
	      0.1250778
	      0.1079520
	      0.1330390
	      0.1334508
	      0.1097038
	      0.1295409
	      0.1250766
	      0.1369081
	      0.1369089
	      0.1250769
	      0.1295387
	      0.1097041
	      0.1334497
	      0.1405233
	      0.1137272
	      0.1097049
	      0.1079525
	      0.1073872
	      0.1073870
	      0.1079522
	      0.1097044
	      0.1137271
	      0.1405229
	      0.1778627
	      0.1405241
	      0.1334506
	      0.1330396
	      0.1331778
	      0.1331776
	      0.1330391
	      0.1334499
	      0.1405232
	      0.1778613
	      0.1873969
	      0.1375649
	      0.1250880
	      0.1241167
	      0.1235426
	      0.1235425
	      0.1241163
	      0.1250873
	      0.1375635
	      0.1873943
	      0.1375649
	      0.1089625
	      0.1022730
	      0.1020484
	      0.1015600
	      0.1015599
	      0.1020481
	      0.1022725
	      0.1089619
	      0.1375633
	      0.1250879
	      0.1022730
	      0.1034771
	      0.0997626
	      0.1033331
	      0.1033325
	      0.0997628
	      0.1034765
	      0.1022735
	      0.1250857
	      0.1241164
	      0.1020481
	      0.0997622
	      0.0938428
	      0.0980861
	      0.0980860
	      0.0938431
	      0.0997613
	      0.1020483
	      0.1241139
	      0.1235421
	      0.1015597
	      0.1033329
	      0.0980864
	      0.1019753
	      0.1019748
	      0.0980861
	      0.1033322
	      0.1015600
	      0.1235395
	      0.1235419
	      0.1015596
	      0.1033320
	      0.0980858
	      0.1019746
	      0.1019740
	      0.0980856
	      0.1033313
	      0.1015598
	      0.1235393
	      0.1241156
	      0.1020476
	      0.0997628
	      0.0938432
	      0.0980859
	      0.0980858
	      0.0938435
	      0.0997619
	      0.1020478
	      0.1241131
	      0.1250865
	      0.1022720
	      0.1034757
	      0.0997612
	      0.1033317
	      0.1033310
	      0.0997614
	      0.1034752
	      0.1022726
	      0.1250843
	      0.1375627
	      0.1089622
	      0.1022731
	      0.1020478
	      0.1015596
	      0.1015595
	      0.1020474
	      0.1022726
	      0.1089616
	      0.1375610
	      0.1873935
	      0.1375624
	      0.1250849
	      0.1241132
	      0.1235389
	      0.1235388
	      0.1241127
	      0.1250841
	      0.1375611
	      0.1873909
	      0.0821879
	      0.0633560
	      0.0631958
	      0.0690718
	      0.0698206
	      0.0698206
	      0.0690718
	      0.0631957
	      0.0633559
	      0.0821874
	      0.0633562
	      0.0669209
	      0.0669857
	      0.0793672
	      0.0787221
	      0.0787219
	      0.0793668
	      0.0669854
	      0.0669205
	      0.0633560
	      0.0631957
	      0.0669854
	      0.0543306
	      0.0655162
	      0.0633890
	      0.0633887
	      0.0655156
	      0.0543302
	      0.0669845
	      0.0631954
	      0.0690717
	      0.0793668
	      0.0655162
	      0.0777212
	      0.0763324
	      0.0763321
	      0.0777205
	      0.0655159
	      0.0793657
	      0.0690708
	      0.0698205
	      0.0787217
	      0.0633890
	      0.0763324
	      0.0754217
	      0.0754214
	      0.0763320
	      0.0633889
	      0.0787206
	      0.0698196
	      0.0698205
	      0.0787214
	      0.0633885
	      0.0763318
	      0.0754212
	      0.0754208
	      0.0763314
	      0.0633884
	      0.0787203
	      0.0698196
	      0.0690716
	      0.0793662
	      0.0655153
	      0.0777202
	      0.0763317
	      0.0763314
	      0.0777196
	      0.0655150
	      0.0793651
	      0.0690707
	      0.0631956
	      0.0669848
	      0.0543299
	      0.0655156
	      0.0633887
	      0.0633884
	      0.0655150
	      0.0543295
	      0.0669840
	      0.0631952
	      0.0633559
	      0.0669204
	      0.0669840
	      0.0793651
	      0.0787202
	      0.0787200
	      0.0793646
	      0.0669837
	      0.0669199
	      0.0633558
	      0.0821878
	      0.0633560
	      0.0631952
	      0.0690707
	      0.0698195
	      0.0698195
	      0.0690706
	      0.0631952
	      0.0633560
	      0.0821873
	      1.0392076
	      0.5926090
	      0.5902071
	      0.6150422
	      0.5854550
	      0.5854529
	      0.6150382
	      0.5902037
	      0.5926014
	      1.0391827
	      0.5926038
	      0.1177758
	      0.1169737
	      0.1473854
	      0.1242015
	      0.1242006
	      0.1473847
	      0.1169756
	      0.1177761
	      0.5925882
	      0.5902001
	      0.1169731
	      0.1189181
	      0.1628533
	      0.1375663
	      0.1375649
	      0.1628519
	      0.1189202
	      0.1169736
	      0.5901819
	      0.6150353
	      0.1473855
	      0.1628543
	      0.2199381
	      0.1935903
	      0.1935886
	      0.2199362
	      0.1628564
	      0.1473857
	      0.6150155
	      0.5854475
	      0.1242016
	      0.1375673
	      0.1935902
	      0.1639167
	      0.1639149
	      0.1935882
	      0.1375697
	      0.1242023
	      0.5854282
	      0.5854449
	      0.1242003
	      0.1375651
	      0.1935874
	      0.1639138
	      0.1639119
	      0.1935854
	      0.1375676
	      0.1242010
	      0.5854255
	      0.6150306
	      0.1473843
	      0.1628522
	      0.2199351
	      0.1935870
	      0.1935852
	      0.2199331
	      0.1628542
	      0.1473845
	      0.6150108
	      0.5901968
	      0.1169758
	      0.1189213
	      0.1628566
	      0.1375700
	      0.1375686
	      0.1628552
	      0.1189234
	      0.1169763
	      0.5901786
	      0.5925945
	      0.1177759
	      0.1169738
	      0.1473854
	      0.1242020
	      0.1242011
	      0.1473846
	      0.1169757
	      0.1177763
	      0.5925789
	      1.0391731
	      0.5925813
	      0.5901750
	      0.6150079
	      0.5854201
	      0.5854181
	      0.6150039
	      0.5901715
	      0.5925737
	      1.0391483
