# vtk DataFile Version 3.0
test_file
ASCII
DATASET POLYDATA
POINTS 1000 float
   1.12500 	   -0.00000 	    0.00000
   1.12500 	   -0.00000 	    1.00000
   1.12500 	    0.00000 	    2.00000
   1.12500 	    0.00000 	    3.00000
   1.12500 	    0.00000 	    4.00000
   1.12500 	    0.00000 	    5.00000
   1.12500 	    0.00000 	    6.00000
   1.12500 	    0.00000 	    7.00000
   1.12500 	   -0.00000 	    8.00000
   1.12500 	    0.00000 	    9.00000
   1.12500 	    1.00000 	    0.00000
   1.12500 	    1.00000 	    1.00000
   1.12500 	    1.00000 	    2.00000
   1.12500 	    1.00000 	    3.00000
   1.12500 	    1.00000 	    4.00000
   1.12500 	    1.00000 	    5.00000
   1.12500 	    1.00000 	    6.00000
   1.12500 	    1.00000 	    7.00000
   1.12500 	    1.00000 	    8.00000
   1.12500 	    1.00000 	    9.00000
   1.12500 	    2.00000 	    0.00000
   1.12500 	    2.00000 	    1.00000
   1.12500 	    2.00000 	    2.00000
   1.12500 	    2.00000 	    3.00000
   1.12500 	    2.00000 	    4.00000
   1.12500 	    2.00000 	    5.00000
   1.12500 	    2.00000 	    6.00000
   1.12500 	    2.00000 	    7.00000
   1.12500 	    2.00000 	    8.00000
   1.12500 	    2.00000 	    9.00000
   1.12500 	    3.00000 	    0.00000
   1.12500 	    3.00000 	    1.00000
   1.12500 	    3.00000 	    2.00000
   1.12500 	    3.00000 	    3.00000
   1.12500 	    3.00000 	    4.00000
   1.12500 	    3.00000 	    5.00000
   1.12500 	    3.00000 	    6.00000
   1.12500 	    3.00000 	    7.00000
   1.12500 	    3.00000 	    8.00000
   1.12500 	    3.00000 	    9.00000
   1.12500 	    4.00000 	    0.00000
   1.12500 	    4.00000 	    1.00000
   1.12500 	    4.00000 	    2.00000
   1.12500 	    4.00000 	    3.00000
   1.12500 	    4.00000 	    4.00000
   1.12500 	    4.00000 	    5.00000
   1.12500 	    4.00000 	    6.00000
   1.12500 	    4.00000 	    7.00000
   1.12500 	    4.00000 	    8.00000
   1.12500 	    4.00000 	    9.00000
   1.12500 	    5.00000 	    0.00000
   1.12500 	    5.00000 	    1.00000
   1.12500 	    5.00000 	    2.00000
   1.12500 	    5.00000 	    3.00000
   1.12500 	    5.00000 	    4.00000
   1.12500 	    5.00000 	    5.00000
   1.12500 	    5.00000 	    6.00000
   1.12500 	    5.00000 	    7.00000
   1.12500 	    5.00000 	    8.00000
   1.12500 	    5.00000 	    9.00000
   1.12500 	    6.00000 	    0.00000
   1.12500 	    6.00000 	    1.00000
   1.12500 	    6.00000 	    2.00000
   1.12500 	    6.00000 	    3.00000
   1.12500 	    6.00000 	    4.00000
   1.12500 	    6.00000 	    5.00000
   1.12500 	    6.00000 	    6.00000
   1.12500 	    6.00000 	    7.00000
   1.12500 	    6.00000 	    8.00000
   1.12500 	    6.00000 	    9.00000
   1.12500 	    7.00000 	    0.00000
   1.12500 	    7.00000 	    1.00000
   1.12500 	    7.00000 	    2.00000
   1.12500 	    7.00000 	    3.00000
   1.12500 	    7.00000 	    4.00000
   1.12500 	    7.00000 	    5.00000
   1.12500 	    7.00000 	    6.00000
   1.12500 	    7.00000 	    7.00000
   1.12500 	    7.00000 	    8.00000
   1.12500 	    7.00000 	    9.00000
   1.12500 	    8.00000 	    0.00000
   1.12500 	    8.00000 	    1.00000
   1.12500 	    8.00000 	    2.00000
   1.12500 	    8.00000 	    3.00000
   1.12500 	    8.00000 	    4.00000
   1.12500 	    8.00000 	    5.00000
   1.12500 	    8.00000 	    6.00000
   1.12500 	    8.00000 	    7.00000
   1.12500 	    8.00000 	    8.00000
   1.12500 	    8.00000 	    9.00000
   1.12500 	    9.00000 	    0.00000
   1.12500 	    9.00000 	    1.00000
   1.12500 	    9.00000 	    2.00000
   1.12500 	    9.00000 	    3.00000
   1.12500 	    9.00000 	    4.00000
   1.12500 	    9.00000 	    5.00000
   1.12500 	    9.00000 	    6.00000
   1.12500 	    9.00000 	    7.00000
   1.12500 	    9.00000 	    8.00000
   1.12500 	    9.00000 	    9.00000
   2.14497 	   -0.21894 	   -0.21894
   2.13094 	   -0.23622 	    0.88661
   2.12945 	   -0.23570 	    1.93796
   2.13765 	   -0.24257 	    2.95087
   2.13152 	   -0.24163 	    3.98165
   2.13152 	   -0.24163 	    5.01834
   2.13765 	   -0.24257 	    6.04912
   2.12944 	   -0.23569 	    7.06204
   2.13094 	   -0.23621 	    8.11339
   2.14497 	   -0.21893 	    9.21894
   2.13095 	    0.88661 	   -0.23622
   2.08951 	    0.84885 	    0.84885
   2.07844 	    0.86351 	    1.91865
   2.08186 	    0.85890 	    2.92560
   2.08021 	    0.86315 	    3.97162
   2.08021 	    0.86315 	    5.02837
   2.08187 	    0.85890 	    6.07439
   2.07844 	    0.86351 	    7.08134
   2.08951 	    0.84885 	    8.15114
   2.13095 	    0.88661 	    9.23621
   2.12945 	    1.93796 	   -0.23569
   2.07844 	    1.91865 	    0.86351
   2.08878 	    1.92342 	    1.92342
   2.08804 	    1.92374 	    2.91318
   2.09040 	    1.92432 	    3.96654
   2.09040 	    1.92432 	    5.03345
   2.08804 	    1.92374 	    6.08680
   2.08878 	    1.92342 	    7.07657
   2.07844 	    1.91865 	    8.13648
   2.12945 	    1.93796 	    9.23568
   2.13765 	    2.95087 	   -0.24257
   2.08186 	    2.92560 	    0.85890
   2.08804 	    2.91318 	    1.92374
   2.08446 	    2.91116 	    2.91116
   2.08678 	    2.91029 	    3.96611
   2.08678 	    2.91029 	    5.03387
   2.08446 	    2.91116 	    6.08882
   2.08804 	    2.91318 	    7.07625
   2.08186 	    2.92560 	    8.14109
   2.13765 	    2.95087 	    9.24256
   2.13152 	    3.98165 	   -0.24163
   2.08021 	    3.97162 	    0.86315
   2.09040 	    3.96653 	    1.92432
   2.08678 	    3.96611 	    2.91030
   2.08889 	    3.96606 	    3.96607
   2.08889 	    3.96606 	    5.03392
   2.08678 	    3.96611 	    6.08969
   2.09040 	    3.96653 	    7.07567
   2.08021 	    3.97162 	    8.13684
   2.13152 	    3.98165 	    9.24162
   2.13152 	    5.01834 	   -0.24163
   2.08021 	    5.02836 	    0.86315
   2.09040 	    5.03345 	    1.92433
   2.08678 	    5.03387 	    2.91030
   2.08889 	    5.03392 	    3.96607
   2.08889 	    5.03392 	    5.03392
   2.08678 	    5.03387 	    6.08969
   2.09040 	    5.03345 	    7.07567
   2.08021 	    5.02836 	    8.13684
   2.13152 	    5.01834 	    9.24162
   2.13765 	    6.04912 	   -0.24256
   2.08187 	    6.07438 	    0.85890
   2.08804 	    6.08680 	    1.92374
   2.08446 	    6.08882 	    2.91117
   2.08678 	    6.08969 	    3.96611
   2.08678 	    6.08969 	    5.03387
   2.08446 	    6.08882 	    6.08882
   2.08804 	    6.08680 	    7.07625
   2.08186 	    6.07438 	    8.14109
   2.13765 	    6.04912 	    9.24256
   2.12944 	    7.06204 	   -0.23569
   2.07844 	    7.08134 	    0.86351
   2.08878 	    7.07657 	    1.92343
   2.08804 	    7.07625 	    2.91319
   2.09040 	    7.07567 	    3.96654
   2.09040 	    7.07567 	    5.03345
   2.08804 	    7.07625 	    6.08680
   2.08878 	    7.07657 	    7.07657
   2.07843 	    7.08134 	    8.13648
   2.12944 	    7.06203 	    9.23568
   2.13094 	    8.11339 	   -0.23621
   2.08951 	    8.15114 	    0.84886
   2.07844 	    8.13648 	    1.91865
   2.08186 	    8.14109 	    2.92561
   2.08021 	    8.13684 	    3.97162
   2.08021 	    8.13684 	    5.02837
   2.08186 	    8.14109 	    6.07438
   2.07843 	    8.13647 	    7.08134
   2.08951 	    8.15113 	    8.15114
   2.13094 	    8.11338 	    9.23620
   2.14497 	    9.21893 	   -0.21893
   2.13095 	    9.23621 	    0.88661
   2.12945 	    9.23568 	    1.93796
   2.13765 	    9.24255 	    2.95088
   2.13152 	    9.24162 	    3.98165
   2.13152 	    9.24162 	    5.01834
   2.13765 	    9.24255 	    6.04912
   2.12945 	    9.23568 	    7.06203
   2.13094 	    9.23620 	    8.11338
   2.14497 	    9.21893 	    9.21893
   2.86703 	   -0.31162 	   -0.31162
   2.91560 	   -0.32803 	    0.76924
   2.93232 	   -0.33914 	    1.84747
   2.93283 	   -0.35016 	    2.90661
   2.92800 	   -0.35662 	    3.96945
   2.92800 	   -0.35662 	    5.03054
   2.93283 	   -0.35015 	    6.09338
   2.93232 	   -0.33913 	    7.15252
   2.91560 	   -0.32803 	    8.23075
   2.86704 	   -0.31162 	    9.31162
   2.91560 	    0.76924 	   -0.32803
   3.01344 	    0.74212 	    0.74212
   3.04738 	    0.72923 	    1.85513
   3.04720 	    0.72004 	    2.91395
   3.04087 	    0.70944 	    3.97242
   3.04087 	    0.70944 	    5.02757
   3.04720 	    0.72004 	    6.08604
   3.04737 	    0.72924 	    7.14486
   3.01344 	    0.74213 	    8.25787
   2.91560 	    0.76925 	    9.32802
   2.93232 	    1.84747 	   -0.33913
   3.04738 	    1.85513 	    0.72924
   3.06843 	    1.85797 	    1.85798
   3.05882 	    1.85334 	    2.91450
   3.04293 	    1.84127 	    3.97041
   3.04293 	    1.84127 	    5.02958
   3.05882 	    1.85334 	    6.08549
   3.06843 	    1.85798 	    7.14201
   3.04738 	    1.85514 	    8.27075
   2.93233 	    1.84747 	    9.33912
   2.93283 	    2.90661 	   -0.35015
   3.04720 	    2.91395 	    0.72004
   3.05882 	    2.91450 	    1.85334
   3.04569 	    2.91238 	    2.91238
   3.02885 	    2.90704 	    3.96887
   3.02885 	    2.90704 	    5.03112
   3.04569 	    2.91238 	    6.08761
   3.05882 	    2.91450 	    7.14664
   3.04720 	    2.91395 	    8.27995
   2.93283 	    2.90661 	    9.35014
   2.92801 	    3.96945 	   -0.35662
   3.04087 	    3.97241 	    0.70944
   3.04293 	    3.97040 	    1.84128
   3.02885 	    3.96887 	    2.90705
   3.00958 	    3.96729 	    3.96730
   3.00958 	    3.96729 	    5.03269
   3.02885 	    3.96887 	    6.09294
   3.04293 	    3.97040 	    7.15871
   3.04087 	    3.97241 	    8.29054
   2.92801 	    3.96945 	    9.35660
   2.92801 	    5.03054 	   -0.35662
   3.04087 	    5.02757 	    0.70945
   3.04293 	    5.02957 	    1.84128
   3.02885 	    5.03112 	    2.90705
   3.00958 	    5.03268 	    3.96730
   3.00958 	    5.03268 	    5.03269
   3.02885 	    5.03111 	    6.09294
   3.04293 	    5.02957 	    7.15871
   3.04087 	    5.02757 	    8.29054
   2.92801 	    5.03054 	    9.35660
   2.93283 	    6.09337 	   -0.35015
   3.04720 	    6.08603 	    0.72004
   3.05882 	    6.08549 	    1.85334
   3.04569 	    6.08761 	    2.91238
   3.02885 	    6.09294 	    3.96887
   3.02885 	    6.09294 	    5.03112
   3.04569 	    6.08761 	    6.08761
   3.05882 	    6.08548 	    7.14664
[...]
POINT_DATA 1000
SCALARS C float
LOOKUP_TABLE default
	      1.5505732
	      0.8695347
	      0.8831477
	      0.9205190
	      0.8727792
	      0.8727752
	      0.9205127
	      0.8831469
	      0.8695281
	      1.5505402
	      0.8695270
	      0.1137141
	      0.1291210
	      0.1850743
	      0.1444134
	      0.1444109
	      0.1850715
	      0.1291264
	      0.1137159
	      0.8695061
	      0.8831381
	      0.1291208
	      0.1493234
	      0.2299233
	      0.1839114
	      0.1839083
	      0.2299194
	      0.1493290
	      0.1291247
	      0.8831128
	      0.9205102
	      0.1850758
	      0.2299256
	      0.3314197
	      0.2821877
	      0.2821844
	      0.3314148
	      0.2299305
	      0.1850795
	      0.9204832
	      0.8727695
	      0.1444146
	      0.1839134
	      0.2821873
	      0.2270317
	      0.2270283
	      0.2821826
	      0.1839185
	      0.1444186
	      0.8727431
	      0.8727646
	      0.1444110
	      0.1839087
	      0.2821820
	      0.2270263
	      0.2270230
	      0.2821773
	      0.1839139
	      0.1444151
	      0.8727382
	      0.9205027
	      0.1850717
	      0.2299200
	      0.3314124
	      0.2821802
	      0.2821769
	      0.3314075
	      0.2299249
	      0.1850753
	      0.9204757
	      0.8831383
	      0.1291279
	      0.1493318
	      0.2299312
	      0.1839189
	      0.1839159
	      0.2299272
	      0.1493374
	      0.1291318
	      0.8831130
	      0.8695191
	      0.1137162
	      0.1291263
	      0.1850797
	      0.1444188
	      0.1444163
	      0.1850769
	      0.1291316
	      0.1137181
	      0.8694982
	      1.5505289
	      0.8694971
	      0.8831042
	      0.9204733
	      0.8727324
	      0.8727285
	      0.9204669
	      0.8831034
	      0.8694905
	      1.5504959
	      0.1225440
	      0.0937421
	      0.0939027
	      0.1029029
	      0.1034734
	      0.1034734
	      0.1029028
	      0.0939023
	      0.0937414
	      0.1225433
	      0.0937423
	      0.1043772
	      0.1057859
	      0.1236069
	      0.1228867
	      0.1228865
	      0.1236073
	      0.1057851
	      0.1043765
	      0.0937408
	      0.0939023
	      0.1057854
	      0.0874698
	      0.1046627
	      0.1016353
	      0.1016353
	      0.1046640
	      0.0874689
	      0.1057848
	      0.0939005
	      0.1029023
	      0.1236062
	      0.1046623
	      0.1241003
	      0.1216010
	      0.1216009
	      0.1241017
	      0.1046614
	      0.1236056
	      0.1029000
	      0.1034730
	      0.1228862
	      0.1016353
	      0.1216012
	      0.1188072
	      0.1188071
	      0.1216027
	      0.1016345
	      0.1228855
	      0.1034707
	      0.1034730
	      0.1228860
	      0.1016351
	      0.1216010
	      0.1188070
	      0.1188069
	      0.1216024
	      0.1016343
	      0.1228852
	      0.1034707
	      0.1029023
	      0.1236068
	      0.1046639
	      0.1241021
	      0.1216028
	      0.1216027
	      0.1241035
	      0.1046630
	      0.1236061
	      0.1029000
	      0.0939017
	      0.1057844
	      0.0874683
	      0.1046613
	      0.1016342
	      0.1016342
	      0.1046626
	      0.0874674
	      0.1057838
	      0.0938999
	      0.0937410
	      0.1043763
	      0.1057841
	      0.1236051
	      0.1228849
	      0.1228847
	      0.1236054
	      0.1057834
	      0.1043757
	      0.0937395
	      0.1225435
	      0.0937404
	      0.0938999
	      0.1028994
	      0.1034703
	      0.1034702
	      0.1028994
	      0.0938995
	      0.0937397
	      0.1225428
	      0.2627770
	      0.1950726
	      0.1774794
	      0.1756457
	      0.1742661
	      0.1742660
	      0.1756453
	      0.1774785
	      0.1950710
	      0.2627750
	      0.1950728
	      0.1628618
	      0.1551612
	      0.1546795
	      0.1541141
	      0.1541142
	      0.1546792
	      0.1551601
	      0.1628601
	      0.1950728
	      0.1774795
	      0.1551607
	      0.1383871
	      0.1294677
	      0.1385566
	      0.1385546
	      0.1294678
	      0.1383855
	      0.1551576
	      0.1774795
	      0.1756457
	      0.1546786
	      0.1294665
	      0.1188916
	      0.1289253
	      0.1289239
	      0.1188923
	      0.1294648
	      0.1546750
	      0.1756456
	      0.1742661
	      0.1541130
	      0.1385559
	      0.1289257
	      0.1399354
	      0.1399331
	      0.1289257
	      0.1385547
	      0.1541091
	      0.1742659
	      0.1742659
	      0.1541131
	      0.1385539
	      0.1289237
	      0.1399320
	      0.1399298
	      0.1289238
	      0.1385527
	      0.1541091
	      0.1742658
	      0.1756451
	      0.1546779
	      0.1294670
	      0.1188923
	      0.1289255
	      0.1289242
	      0.1188931
	      0.1294654
	      0.1546743
	      0.1756450
	      0.1774781
	      0.1551589
	      0.1383843
	      0.1294641
	      0.1385540
	      0.1385521
	      0.1294641
	      0.1383828
	      0.1551558
	      0.1774781
	      0.1950706
	      0.1628597
	      0.1551564
	      0.1546737
	      0.1541080
	      0.1541080
	      0.1546734
	      0.1551553
	      0.1628580
	      0.1950706
	      0.2627750
	      0.1950723
	      0.1774791
	      0.1756454
	      0.1742658
	      0.1742657
	      0.1756450
	      0.1774782
	      0.1950707
	      0.2627730
	      0.2442727
	      0.1966969
	      0.1876708
	      0.1868999
	      0.1867966
	      0.1867964
	      0.1868995
	      0.1876700
	      0.1966956
	      0.2442714
	      0.1966975
	      0.1635236
	      0.1591831
	      0.1556439
	      0.1545083
	      0.1545081
	      0.1556437
	      0.1591825
	      0.1635241
	      0.1966976
	      0.1876714
	      0.1591836
	      0.2061606
	      0.1981819
	      0.2210878
	      0.2210877
	      0.1981827
	      0.2061579
	      0.1591847
	      0.1876709
	      0.1869003
	      0.1556443
	      0.1981806
	      0.1709852
	      0.1934932
	      0.1934932
	      0.1709865
	      0.1981785
	      0.1556453
	      0.1868996
	      0.1867968
	      0.1545086
	      0.2210869
	      0.1934937
	      0.2199961
	      0.2199954
	      0.1934945
	      0.2210850
	      0.1545092
	      0.1867960
	      0.1867965
	      0.1545083
	      0.2210867
	      0.1934933
	      0.2199951
	      0.2199943
	      0.1934942
	      0.2210849
	      0.1545088
	      0.1867957
	      0.1868994
	      0.1556436
	      0.1981819
	      0.1709865
	      0.1934946
	      0.1934947
	      0.1709878
	      0.1981798
	      0.1556447
	      0.1868987
	      0.1876697
	      0.1591824
	      0.2061568
	      0.1981777
	      0.2210840
	      0.2210839
	      0.1981784
	      0.2061540
	      0.1591835
	      0.1876692
	      0.1966951
	      0.1635245
	      0.1591846
	      0.1556452
	      0.1545094
	      0.1545092
	      0.1556450
	      0.1591840
	      0.1635250
	      0.1966952
	      0.2442714
	      0.1966970
	      0.1876705
	      0.1868995
	      0.1867961
	      0.1867959
	      0.1868991
	      0.1876697
	      0.1966957
	      0.2442701
	      0.1905684
	      0.1674369
	      0.1664139
	      0.1696411
	      0.1703827
	      0.1703825
	      0.1696407
	      0.1664134
	      0.1674363
	      0.1905683
	      0.1674378
	      0.1366119
	      0.1375892
	      0.1371982
	      0.1355352
	      0.1355348
	      0.1371979
	      0.1375889
	      0.1366134
	      0.1674390
	      0.1664149
	      0.1375902
	      0.1860758
	      0.1794591
	      0.1964542
	      0.1964541
	      0.1794590
	      0.1860728
	      0.1375919
	      0.1664154
	      0.1696420
	      0.1371993
	      0.1794575
	      0.1474001
	      0.1645568
	      0.1645565
	      0.1474003
	      0.1794556
	      0.1372009
	      0.1696421
	      0.1703834
	      0.1355360
	      0.1964531
	      0.1645569
	      0.1892350
	      0.1892353
	      0.1645564
	      0.1964501
	      0.1355376
	      0.1703833
	      0.1703830
	      0.1355354
	      0.1964529
	      0.1645564
	      0.1892351
	      0.1892354
	      0.1645559
	      0.1964499
	      0.1355370
	      0.1703829
	      0.1696410
	      0.1371983
	      0.1794579
	      0.1474000
	      0.1645563
	      0.1645560
	      0.1474002
	      0.1794560
	      0.1371999
	      0.1696411
	      0.1664135
	      0.1375890
	      0.1860714
	      0.1794545
	      0.1964489
	      0.1964488
	      0.1794544
	      0.1860685
	      0.1375907
	      0.1664140
	      0.1674362
	      0.1366139
	      0.1375921
	      0.1372013
	      0.1355382
	      0.1355378
	      0.1372010
	      0.1375917
	      0.1366154
	      0.1674374
	      0.1905691
	      0.1674390
	      0.1664155
	      0.1696424
	      0.1703837
	      0.1703836
	      0.1696420
	      0.1664150
	      0.1674383
	      0.1905691
	      0.1905960
	      0.1674459
	      0.1664057
	      0.1696225
	      0.1703556
	      0.1703553
	      0.1696220
	      0.1664052
	      0.1674454
	      0.1905961
	      0.1674467
	      0.1366174
	      0.1374520
	      0.1369549
	      0.1353191
	      0.1353187
	      0.1369543
	      0.1374516
	      0.1366187
	      0.1674481
	      0.1664067
	      0.1374529
	      0.1862988
	      0.1797833
	      0.1967522
	      0.1967533
	      0.1797835
	      0.1862962
	      0.1374540
	      0.1664072
	      0.1696234
	      0.1369558
	      0.1797817
	      0.1477629
	      0.1646818
	      0.1646826
	      0.1477632
	      0.1797802
	      0.1369568
	      0.1696235
	      0.1703563
	      0.1353197
	      0.1967510
	      0.1646818
	      0.1891491
	      0.1891502
	      0.1646816
	      0.1967491
	      0.1353204
	      0.1703562
	      0.1703558
	      0.1353192
	      0.1967526
	      0.1646829
	      0.1891506
	      0.1891516
	      0.1646827
	      0.1967507
	      0.1353199
	      0.1703557
	      0.1696223
	      0.1369546
	      0.1797825
	      0.1477632
	      0.1646819
	      0.1646826
	      0.1477635
	      0.1797809
	      0.1369556
	      0.1696224
	      0.1664053
	      0.1374517
	      0.1862953
	      0.1797792
	      0.1967484
	      0.1967496
	      0.1797794
	      0.1862927
	      0.1374528
	      0.1664057
	      0.1674454
	      0.1366188
	      0.1374541
	      0.1369571
	      0.1353208
	      0.1353205
	      0.1369565
	      0.1374537
	      0.1366201
	      0.1674467
	      0.1905970
	      0.1674481
	      0.1664072
	      0.1696238
	      0.1703566
	      0.1703564
	      0.1696233
	      0.1664068
	      0.1674476
	      0.1905971
	      0.2444215
	      0.1968094
	      0.1877941
	      0.1870460
	      0.1869338
	      0.1869336
	      0.1870454
	      0.1877933
	      0.1968083
	      0.2444204
	      0.1968099
	      0.1635959
	      0.1591429
	      0.1556254
	      0.1544766
	      0.1544763
	      0.1556249
	      0.1591422
	      0.1635960
	      0.1968101
	      0.1877947
	      0.1591434
	      0.2062496
	      0.1982627
	      0.2206940
	      0.2206941
	      0.1982626
	      0.2062479
	      0.1591445
	      0.1877938
	      0.1870464
	      0.1556259
	      0.1982616
	      0.1711447
	      0.1931226
	      0.1931232
	      0.1711444
	      0.1982599
	      0.1556273
	      0.1870451
	      0.1869340
	      0.1544770
	      0.2206931
	      0.1931226
	      0.2191539
	      0.2191536
	      0.1931217
	      0.2206919
	      0.1544778
	      0.1869327
	      0.1869336
	      0.1544765
	      0.2206932
	      0.1931229
	      0.2191535
	      0.2191532
	      0.1931219
	      0.2206920
	      0.1544773
	      0.1869322
	      0.1870452
	      0.1556248
	      0.1982620
	      0.1711438
	      0.1931214
	      0.1931220
	      0.1711434
	      0.1982603
	      0.1556262
	      0.1870440
	      0.1877930
	      0.1591420
	      0.2062468
	      0.1982593
	      0.2206910
	      0.2206912
	      0.1982592
	      0.2062452
	      0.1591431
	      0.1877921
	      0.1968078
	      0.1635962
	      0.1591444
	      0.1556272
	      0.1544779
	      0.1544776
	      0.1556267
	      0.1591436
	      0.1635963
	      0.1968079
	      0.2444205
	      0.1968095
	      0.1877935
	      0.1870449
	      0.1869327
	      0.1869325
	      0.1870444
	      0.1877927
	      0.1968085
	      0.2444194
	      0.2631692
	      0.1953387
	      0.1777758
	      0.1759904
	      0.1746192
	      0.1746190
	      0.1759899
	      0.1777749
	      0.1953373
	      0.2631667
	      0.1953390
	      0.1629898
	      0.1553594
	      0.1550455
	      0.1544459
	      0.1544459
	      0.1550451
	      0.1553586
	      0.1629889
	      0.1953375
	      0.1777758
	      0.1553593
	      0.1372349
	      0.1289087
	      0.1383043
	      0.1383028
	      0.1289085
	      0.1372347
	      0.1553586
	      0.1777737
	      0.1759901
	      0.1550450
	      0.1289078
	      0.1190387
	      0.1295966
	      0.1295961
	      0.1190389
	      0.1289072
	      0.1550437
	      0.1759879
	      0.1746188
	      0.1544451
	      0.1383040
	      0.1295970
	      0.1409751
	      0.1409740
	      0.1295967
	      0.1383037
	      0.1544438
	      0.1746165
	      0.1746185
	      0.1544452
	      0.1383025
	      0.1295960
	      0.1409734
	      0.1409722
	      0.1295957
	      0.1383021
	      0.1544439
	      0.1746163
	      0.1759893
	      0.1550442
	      0.1289083
	      0.1190388
	      0.1295965
	      0.1295961
	      0.1190390
	      0.1289076
	      0.1550430
	      0.1759871
	      0.1777742
	      0.1553579
	      0.1372336
	      0.1289070
	      0.1383033
	      0.1383018
	      0.1289067
	      0.1372334
	      0.1553572
	      0.1777722
	      0.1953364
	      0.1629890
	      0.1553579
	      0.1550429
	      0.1544431
	      0.1544431
	      0.1550424
	      0.1553571
	      0.1629881
	      0.1953350
	      0.2631661
	      0.1953366
	      0.1777730
	      0.1759873
	      0.1746160
	      0.1746159
	      0.1759868
	      0.1777721
	      0.1953352
	      0.2631636
	      0.1229611
	      0.0939622
	      0.0941099
	      0.1031185
	      0.1036808
	      0.1036807
	      0.1031182
	      0.0941097
	      0.0939619
	      0.1229602
	      0.0939623
	      0.1043124
	      0.1057811
	      0.1235704
	      0.1227558
	      0.1227555
	      0.1235698
	      0.1057807
	      0.1043114
	      0.0939619
	      0.0941097
	      0.1057806
	      0.0875777
	      0.1047766
	      0.1014759
	      0.1014756
	      0.1047760
	      0.0875773
	      0.1057792
	      0.0941090
	      0.1031181
	      0.1235697
	      0.1047767
	      0.1241539
	      0.1212602
	      0.1212598
	      0.1241533
	      0.1047764
	      0.1235681
	      0.1031170
	      0.1036805
	      0.1227552
	      0.1014759
	      0.1212602
	      0.1180069
	      0.1180064
	      0.1212596
	      0.1014758
	      0.1227536
	      0.1036793
	      0.1036805
	      0.1227547
	      0.1014753
	      0.1212595
	      0.1180061
	      0.1180056
	      0.1212589
	      0.1014751
	      0.1227531
	      0.1036793
	      0.1031179
	      0.1235689
	      0.1047757
	      0.1241530
	      0.1212593
	      0.1212589
	      0.1241523
	      0.1047754
	      0.1235673
	      0.1031168
	      0.0941094
	      0.1057798
	      0.0875770
	      0.1047761
	      0.1014755
	      0.1014751
	      0.1047754
	      0.0875765
	      0.1057784
	      0.0941087
	      0.0939617
	      0.1043110
	      0.1057783
	      0.1235672
	      0.1227528
	      0.1227525
	      0.1235666
	      0.1057779
	      0.1043100
	      0.0939613
	      0.1229607
	      0.0939618
	      0.0941087
	      0.1031167
	      0.1036791
	      0.1036790
	      0.1031165
	      0.0941085
	      0.0939615
	      0.1229597
	      1.5505050
	      0.8694933
	      0.8829541
	      0.9203459
	      0.8724625
	      0.8724599
	      0.9203407
	      0.8829506
	      0.8694853
	      1.5504736
	      0.8694864
	      0.1145822
	      0.1297229
	      0.1855640
	      0.1449126
	      0.1449115
	      0.1855631
	      0.1297263
	      0.1145841
	      0.8694671
	      0.8829450
	      0.1297223
	      0.1496573
	      0.2301230
	      0.1841996
	      0.1841983
	      0.2301216
	      0.1496605
	      0.1297242
	      0.8829222
	      0.9203373
	      0.1855647
	      0.2301245
	      0.3314511
	      0.2821926
	      0.2821909
	      0.3314488
	      0.2301272
	      0.1855661
	      0.9203130
	      0.8724533
	      0.1449133
	      0.1842011
	      0.2821923
	      0.2268356
	      0.2268341
	      0.2821903
	      0.1842044
	      0.1449155
	      0.8724297
	      0.8724499
	      0.1449117
	      0.1841988
	      0.2821894
	      0.2268328
	      0.2268313
	      0.2821874
	      0.1842021
	      0.1449138
	      0.8724263
	      0.9203312
	      0.1855632
	      0.2301221
	      0.3314474
	      0.2821888
	      0.2821871
	      0.3314451
	      0.2301248
	      0.1855647
	      0.9203068
	      0.8829420
	      0.1297271
	      0.1496623
	      0.2301278
	      0.1842049
	      0.1842036
	      0.2301263
	      0.1496656
	      0.1297290
	      0.8829192
	      0.8694768
	      0.1145847
	      0.1297251
	      0.1855662
	      0.1449156
	      0.1449145
	      0.1855654
	      0.1297285
	      0.1145866
	      0.8694575
	      1.5504613
	      0.8694586
	      0.8829136
	      0.9203034
	      0.8724197
	      0.8724171
	      0.9202982
	      0.8829101
	      0.8694506
	      1.5504299
