# vtk DataFile Version 3.0
test_file
ASCII
DATASET POLYDATA
POINTS 1000 float
   0.97500 	   -0.00000 	    0.00000
   0.97500 	   -0.00000 	    1.00000
   0.97500 	    0.00000 	    2.00000
   0.97500 	    0.00000 	    3.00000
   0.97500 	    0.00000 	    4.00000
   0.97500 	    0.00000 	    5.00000
   0.97500 	    0.00000 	    6.00000
   0.97500 	    0.00000 	    7.00000
   0.97500 	   -0.00000 	    8.00000
   0.97500 	    0.00000 	    9.00000
   0.97500 	    1.00000 	    0.00000
   0.97500 	    1.00000 	    1.00000
   0.97500 	    1.00000 	    2.00000
   0.97500 	    1.00000 	    3.00000
   0.97500 	    1.00000 	    4.00000
   0.97500 	    1.00000 	    5.00000
   0.97500 	    1.00000 	    6.00000
   0.97500 	    1.00000 	    7.00000
   0.97500 	    1.00000 	    8.00000
   0.97500 	    1.00000 	    9.00000
   0.97500 	    2.00000 	    0.00000
   0.97500 	    2.00000 	    1.00000
   0.97500 	    2.00000 	    2.00000
   0.97500 	    2.00000 	    3.00000
   0.97500 	    2.00000 	    4.00000
   0.97500 	    2.00000 	    5.00000
   0.97500 	    2.00000 	    6.00000
   0.97500 	    2.00000 	    7.00000
   0.97500 	    2.00000 	    8.00000
   0.97500 	    2.00000 	    9.00000
   0.97500 	    3.00000 	    0.00000
   0.97500 	    3.00000 	    1.00000
   0.97500 	    3.00000 	    2.00000
   0.97500 	    3.00000 	    3.00000
   0.97500 	    3.00000 	    4.00000
   0.97500 	    3.00000 	    5.00000
   0.97500 	    3.00000 	    6.00000
   0.97500 	    3.00000 	    7.00000
   0.97500 	    3.00000 	    8.00000
   0.97500 	    3.00000 	    9.00000
   0.97500 	    4.00000 	    0.00000
   0.97500 	    4.00000 	    1.00000
   0.97500 	    4.00000 	    2.00000
   0.97500 	    4.00000 	    3.00000
   0.97500 	    4.00000 	    4.00000
   0.97500 	    4.00000 	    5.00000
   0.97500 	    4.00000 	    6.00000
   0.97500 	    4.00000 	    7.00000
   0.97500 	    4.00000 	    8.00000
   0.97500 	    4.00000 	    9.00000
   0.97500 	    5.00000 	    0.00000
   0.97500 	    5.00000 	    1.00000
   0.97500 	    5.00000 	    2.00000
   0.97500 	    5.00000 	    3.00000
   0.97500 	    5.00000 	    4.00000
   0.97500 	    5.00000 	    5.00000
   0.97500 	    5.00000 	    6.00000
   0.97500 	    5.00000 	    7.00000
   0.97500 	    5.00000 	    8.00000
   0.97500 	    5.00000 	    9.00000
   0.97500 	    6.00000 	    0.00000
   0.97500 	    6.00000 	    1.00000
   0.97500 	    6.00000 	    2.00000
   0.97500 	    6.00000 	    3.00000
   0.97500 	    6.00000 	    4.00000
   0.97500 	    6.00000 	    5.00000
   0.97500 	    6.00000 	    6.00000
   0.97500 	    6.00000 	    7.00000
   0.97500 	    6.00000 	    8.00000
   0.97500 	    6.00000 	    9.00000
   0.97500 	    7.00000 	    0.00000
   0.97500 	    7.00000 	    1.00000
   0.97500 	    7.00000 	    2.00000
   0.97500 	    7.00000 	    3.00000
   0.97500 	    7.00000 	    4.00000
   0.97500 	    7.00000 	    5.00000
   0.97500 	    7.00000 	    6.00000
   0.97500 	    7.00000 	    7.00000
   0.97500 	    7.00000 	    8.00000
   0.97500 	    7.00000 	    9.00000
   0.97500 	    8.00000 	    0.00000
   0.97500 	    8.00000 	    1.00000
   0.97500 	    8.00000 	    2.00000
   0.97500 	    8.00000 	    3.00000
   0.97500 	    8.00000 	    4.00000
   0.97500 	    8.00000 	    5.00000
   0.97500 	    8.00000 	    6.00000
   0.97500 	    8.00000 	    7.00000
   0.97500 	    8.00000 	    8.00000
   0.97500 	    8.00000 	    9.00000
   0.97500 	    9.00000 	    0.00000
   0.97500 	    9.00000 	    1.00000
   0.97500 	    9.00000 	    2.00000
   0.97500 	    9.00000 	    3.00000
   0.97500 	    9.00000 	    4.00000
   0.97500 	    9.00000 	    5.00000
   0.97500 	    9.00000 	    6.00000
   0.97500 	    9.00000 	    7.00000
   0.97500 	    9.00000 	    8.00000
   0.97500 	    9.00000 	    9.00000
   1.99255 	   -0.18527 	   -0.18527
   1.97953 	   -0.19998 	    0.90250
   1.97766 	   -0.19988 	    1.94700
   1.98491 	   -0.20578 	    2.95795
   1.97970 	   -0.20508 	    3.98425
   1.97970 	   -0.20508 	    5.01574
   1.98491 	   -0.20578 	    6.04205
   1.97766 	   -0.19988 	    7.05300
   1.97953 	   -0.19998 	    8.09750
   1.99255 	   -0.18526 	    9.18526
   1.97953 	    0.90250 	   -0.19998
   1.94604 	    0.86945 	    0.86945
   1.93488 	    0.88192 	    1.93083
   1.93840 	    0.87744 	    2.93603
   1.93668 	    0.88156 	    3.97550
   1.93668 	    0.88156 	    5.02449
   1.93840 	    0.87744 	    6.06396
   1.93488 	    0.88192 	    7.06916
   1.94604 	    0.86945 	    8.13054
   1.97953 	    0.90250 	    9.19997
   1.97766 	    1.94700 	   -0.19988
   1.93488 	    1.93083 	    0.88192
   1.94235 	    1.93490 	    1.93490
   1.94190 	    1.93510 	    2.92489
   1.94396 	    1.93575 	    3.97111
   1.94396 	    1.93575 	    5.02888
   1.94190 	    1.93510 	    6.07510
   1.94235 	    1.93490 	    7.06509
   1.93488 	    1.93083 	    8.11807
   1.97766 	    1.94700 	    9.19987
   1.98491 	    2.95795 	   -0.20578
   1.93840 	    2.93602 	    0.87744
   1.94190 	    2.92489 	    1.93510
   1.93897 	    2.92307 	    2.92308
   1.94097 	    2.92237 	    3.97074
   1.94097 	    2.92237 	    5.02925
   1.93897 	    2.92308 	    6.07691
   1.94190 	    2.92489 	    7.06490
   1.93839 	    2.93602 	    8.12255
   1.98491 	    2.95795 	    9.20577
   1.97970 	    3.98425 	   -0.20508
   1.93668 	    3.97549 	    0.88157
   1.94396 	    3.97111 	    1.93575
   1.94097 	    3.97074 	    2.92237
   1.94278 	    3.97068 	    3.97068
   1.94278 	    3.97068 	    5.02931
   1.94097 	    3.97074 	    6.07761
   1.94396 	    3.97111 	    7.06425
   1.93668 	    3.97549 	    8.11843
   1.97971 	    3.98425 	    9.20507
   1.97970 	    5.01574 	   -0.20508
   1.93668 	    5.02449 	    0.88157
   1.94396 	    5.02887 	    1.93575
   1.94097 	    5.02925 	    2.92238
   1.94278 	    5.02930 	    3.97068
   1.94278 	    5.02930 	    5.02931
   1.94097 	    5.02925 	    6.07761
   1.94396 	    5.02887 	    7.06425
   1.93668 	    5.02449 	    8.11843
   1.97971 	    5.01574 	    9.20507
   1.98491 	    6.04205 	   -0.20578
   1.93840 	    6.06396 	    0.87744
   1.94190 	    6.07509 	    1.93510
   1.93897 	    6.07691 	    2.92308
   1.94097 	    6.07761 	    3.97074
   1.94097 	    6.07761 	    5.02925
   1.93897 	    6.07691 	    6.07691
   1.94190 	    6.07509 	    7.06490
   1.93840 	    6.06396 	    8.12255
   1.98491 	    6.04205 	    9.20577
   1.97766 	    7.05300 	   -0.19988
   1.93488 	    7.06916 	    0.88192
   1.94235 	    7.06509 	    1.93491
   1.94190 	    7.06489 	    2.92490
   1.94396 	    7.06424 	    3.97111
   1.94396 	    7.06424 	    5.02887
   1.94190 	    7.06489 	    6.07509
   1.94235 	    7.06509 	    7.06509
   1.93488 	    7.06915 	    8.11807
   1.97766 	    7.05300 	    9.19987
   1.97953 	    8.09749 	   -0.19997
   1.94604 	    8.13054 	    0.86946
   1.93488 	    8.11807 	    1.93084
   1.93839 	    8.12255 	    2.93603
   1.93668 	    8.11842 	    3.97550
   1.93668 	    8.11842 	    5.02449
   1.93840 	    8.12255 	    6.06396
   1.93488 	    8.11807 	    7.06916
   1.94604 	    8.13054 	    8.13054
   1.97953 	    8.09749 	    9.19997
   1.99255 	    9.18526 	   -0.18526
   1.97953 	    9.19997 	    0.90251
   1.97766 	    9.19987 	    1.94700
   1.98491 	    9.20577 	    2.95795
   1.97971 	    9.20507 	    3.98425
   1.97971 	    9.20507 	    5.01574
   1.98491 	    9.20577 	    6.04205
   1.97766 	    9.19987 	    7.05300
   1.97953 	    9.19997 	    8.09749
   1.99255 	    9.18526 	    9.18526
   2.75427 	   -0.26619 	   -0.26618
   2.79538 	   -0.27999 	    0.80289
   2.80919 	   -0.28958 	    1.86981
   2.80949 	   -0.29916 	    2.92018
   2.80533 	   -0.30479 	    3.97388
   2.80533 	   -0.30479 	    5.02611
   2.80949 	   -0.29916 	    6.07981
   2.80919 	   -0.28958 	    7.13018
   2.79539 	   -0.27998 	    8.19711
   2.75427 	   -0.26618 	    9.26618
   2.79539 	    0.80289 	   -0.27999
   2.88112 	    0.77981 	    0.77981
   2.90984 	    0.76827 	    1.87720
   2.90986 	    0.76034 	    2.92670
   2.90411 	    0.75114 	    3.97669
   2.90410 	    0.75114 	    5.02330
   2.90986 	    0.76034 	    6.07329
   2.90983 	    0.76827 	    7.12280
   2.88112 	    0.77981 	    8.22018
   2.79539 	    0.80289 	    9.27998
   2.80919 	    1.86981 	   -0.28958
   2.90984 	    1.87719 	    0.76827
   2.92549 	    1.87981 	    1.87981
   2.91797 	    1.87719 	    2.92672
   2.90464 	    1.86690 	    3.97705
   2.90464 	    1.86690 	    5.02294
   2.91797 	    1.87719 	    6.07327
   2.92549 	    1.87981 	    7.12018
   2.90984 	    1.87720 	    8.23171
   2.80920 	    1.86981 	    9.28956
   2.80949 	    2.92018 	   -0.29916
   2.90986 	    2.92670 	    0.76034
   2.91797 	    2.92672 	    1.87719
   2.90821 	    2.92404 	    2.92404
   2.89401 	    2.92022 	    3.97544
   2.89401 	    2.92022 	    5.02455
   2.90821 	    2.92404 	    6.07595
   2.91797 	    2.92672 	    7.12280
   2.90987 	    2.92670 	    8.23965
   2.80949 	    2.92018 	    9.29915
   2.80534 	    3.97388 	   -0.30479
   2.90411 	    3.97669 	    0.75115
   2.90464 	    3.97705 	    1.86691
   2.89401 	    3.97543 	    2.92022
   2.87743 	    3.97388 	    3.97389
   2.87743 	    3.97388 	    5.02610
   2.89401 	    3.97543 	    6.07977
   2.90463 	    3.97705 	    7.13308
   2.90411 	    3.97669 	    8.24884
   2.80534 	    3.97388 	    9.30478
   2.80534 	    5.02611 	   -0.30479
   2.90410 	    5.02329 	    0.75115
   2.90463 	    5.02294 	    1.86691
   2.89401 	    5.02455 	    2.92022
   2.87743 	    5.02610 	    3.97389
   2.87743 	    5.02610 	    5.02610
   2.89401 	    5.02455 	    6.07977
   2.90463 	    5.02294 	    7.13308
   2.90411 	    5.02329 	    8.24884
   2.80534 	    5.02611 	    9.30477
   2.80949 	    6.07981 	   -0.29916
   2.90986 	    6.07328 	    0.76034
   2.91797 	    6.07327 	    1.87719
   2.90821 	    6.07595 	    2.92404
   2.89401 	    6.07976 	    3.97544
   2.89401 	    6.07976 	    5.02455
   2.90821 	    6.07595 	    6.07595
   2.91797 	    6.07327 	    7.12280
[...]
POINT_DATA 1000
SCALARS C float
LOOKUP_TABLE default
	      1.4007551
	      0.7907062
	      0.8000072
	      0.8325251
	      0.7900373
	      0.7900337
	      0.8325192
	      0.8000060
	      0.7906993
	      1.4007240
	      0.7906991
	      0.1155700
	      0.1267568
	      0.1745105
	      0.1389282
	      0.1389260
	      0.1745082
	      0.1267616
	      0.1155711
	      0.7906797
	      0.7999982
	      0.1267565
	      0.1424373
	      0.2116508
	      0.1715133
	      0.1715106
	      0.2116476
	      0.1424421
	      0.1267595
	      0.7999748
	      0.8325167
	      0.1745118
	      0.2116530
	      0.2992497
	      0.2561873
	      0.2561839
	      0.2992453
	      0.2116572
	      0.1745145
	      0.8324917
	      0.7900282
	      0.1389292
	      0.1715151
	      0.2561869
	      0.2076993
	      0.2076960
	      0.2561826
	      0.1715197
	      0.1389325
	      0.7900037
	      0.7900238
	      0.1389259
	      0.1715109
	      0.2561818
	      0.2076942
	      0.2076909
	      0.2561775
	      0.1715156
	      0.1389292
	      0.7899992
	      0.8325101
	      0.1745082
	      0.2116481
	      0.2992432
	      0.2561805
	      0.2561771
	      0.2992387
	      0.2116524
	      0.1745110
	      0.8324851
	      0.7999980
	      0.1267627
	      0.1424446
	      0.2116578
	      0.1715201
	      0.1715174
	      0.2116545
	      0.1424494
	      0.1267657
	      0.7999746
	      0.7906908
	      0.1155710
	      0.1267606
	      0.1745146
	      0.1389324
	      0.1389301
	      0.1745122
	      0.1267653
	      0.1155721
	      0.7906714
	      1.4007135
	      0.7906713
	      0.7999667
	      0.8324826
	      0.7899937
	      0.7899901
	      0.8324767
	      0.7999656
	      0.7906643
	      1.4006824
	      0.1097653
	      0.0842081
	      0.0844010
	      0.0925134
	      0.0931957
	      0.0931956
	      0.0925133
	      0.0844007
	      0.0842075
	      0.1097646
	      0.0842083
	      0.0931882
	      0.0945005
	      0.1106000
	      0.1096764
	      0.1096761
	      0.1106002
	      0.0944998
	      0.0931876
	      0.0842071
	      0.0844007
	      0.0945001
	      0.0774623
	      0.0924766
	      0.0889248
	      0.0889243
	      0.0924772
	      0.0774614
	      0.0944995
	      0.0843990
	      0.0925128
	      0.1105993
	      0.0924762
	      0.1090869
	      0.1057657
	      0.1057651
	      0.1090875
	      0.0924753
	      0.1105986
	      0.0925106
	      0.0931952
	      0.1096759
	      0.0889247
	      0.1057658
	      0.1022186
	      0.1022178
	      0.1057663
	      0.0889238
	      0.1096750
	      0.0931930
	      0.0931952
	      0.1096756
	      0.0889240
	      0.1057649
	      0.1022174
	      0.1022167
	      0.1057654
	      0.0889231
	      0.1096747
	      0.0931930
	      0.0925128
	      0.1105997
	      0.0924771
	      0.1090876
	      0.1057662
	      0.1057655
	      0.1090882
	      0.0924761
	      0.1105989
	      0.0925106
	      0.0844002
	      0.0944991
	      0.0774608
	      0.0924751
	      0.0889235
	      0.0889230
	      0.0924758
	      0.0774600
	      0.0944985
	      0.0843985
	      0.0842072
	      0.0931874
	      0.0944988
	      0.1105980
	      0.1096745
	      0.1096742
	      0.1105982
	      0.0944981
	      0.0931868
	      0.0842060
	      0.1097648
	      0.0842068
	      0.0843985
	      0.0925101
	      0.0931926
	      0.0931926
	      0.0925100
	      0.0843982
	      0.0842062
	      0.1097641
	      0.2412280
	      0.1784484
	      0.1623637
	      0.1608356
	      0.1596661
	      0.1596660
	      0.1608353
	      0.1623629
	      0.1784469
	      0.2412259
	      0.1784485
	      0.1468581
	      0.1396141
	      0.1394324
	      0.1384137
	      0.1384134
	      0.1394319
	      0.1396133
	      0.1468565
	      0.1784483
	      0.1623638
	      0.1396136
	      0.1285706
	      0.1218475
	      0.1311953
	      0.1311948
	      0.1218484
	      0.1285686
	      0.1396120
	      0.1623634
	      0.1608356
	      0.1394315
	      0.1218466
	      0.1133466
	      0.1239072
	      0.1239072
	      0.1133481
	      0.1218440
	      0.1394296
	      0.1608350
	      0.1596659
	      0.1384130
	      0.1311949
	      0.1239079
	      0.1346172
	      0.1346168
	      0.1239091
	      0.1311932
	      0.1384108
	      0.1596654
	      0.1596657
	      0.1384126
	      0.1311936
	      0.1239072
	      0.1346167
	      0.1346163
	      0.1239083
	      0.1311919
	      0.1384103
	      0.1596652
	      0.1608349
	      0.1394310
	      0.1218481
	      0.1133486
	      0.1239091
	      0.1239090
	      0.1133501
	      0.1218455
	      0.1394291
	      0.1608344
	      0.1623624
	      0.1396123
	      0.1285671
	      0.1218437
	      0.1311921
	      0.1311915
	      0.1218446
	      0.1285651
	      0.1396107
	      0.1623620
	      0.1784464
	      0.1468565
	      0.1396111
	      0.1394287
	      0.1384100
	      0.1384096
	      0.1394283
	      0.1396102
	      0.1468550
	      0.1784461
	      0.2412257
	      0.1784478
	      0.1623629
	      0.1608347
	      0.1596652
	      0.1596651
	      0.1608344
	      0.1623621
	      0.1784462
	      0.2412236
	      0.2259577
	      0.1807885
	      0.1721809
	      0.1715098
	      0.1715147
	      0.1715146
	      0.1715094
	      0.1721802
	      0.1807873
	      0.2259564
	      0.1807890
	      0.1491035
	      0.1445161
	      0.1414288
	      0.1403214
	      0.1403211
	      0.1414283
	      0.1445153
	      0.1491039
	      0.1807889
	      0.1721814
	      0.1445165
	      0.1833225
	      0.1750474
	      0.1946019
	      0.1946022
	      0.1750482
	      0.1833201
	      0.1445171
	      0.1721808
	      0.1715101
	      0.1414291
	      0.1750464
	      0.1494279
	      0.1686016
	      0.1686016
	      0.1494282
	      0.1750430
	      0.1414292
	      0.1715094
	      0.1715149
	      0.1403215
	      0.1946008
	      0.1686016
	      0.1911192
	      0.1911191
	      0.1686016
	      0.1945982
	      0.1403218
	      0.1715140
	      0.1715146
	      0.1403212
	      0.1946009
	      0.1686012
	      0.1911190
	      0.1911188
	      0.1686012
	      0.1945982
	      0.1403214
	      0.1715137
	      0.1715092
	      0.1414283
	      0.1750474
	      0.1494282
	      0.1686013
	      0.1686012
	      0.1494285
	      0.1750441
	      0.1414283
	      0.1715085
	      0.1721798
	      0.1445152
	      0.1833182
	      0.1750422
	      0.1945969
	      0.1945972
	      0.1750430
	      0.1833158
	      0.1445157
	      0.1721792
	      0.1807867
	      0.1491041
	      0.1445170
	      0.1414291
	      0.1403218
	      0.1403215
	      0.1414286
	      0.1445161
	      0.1491045
	      0.1807867
	      0.2259563
	      0.1807884
	      0.1721804
	      0.1715092
	      0.1715140
	      0.1715139
	      0.1715088
	      0.1721796
	      0.1807872
	      0.2259550
	      0.1786205
	      0.1550855
	      0.1536917
	      0.1566775
	      0.1574839
	      0.1574837
	      0.1566771
	      0.1536912
	      0.1550849
	      0.1786205
	      0.1550863
	      0.1257220
	      0.1258573
	      0.1255168
	      0.1243354
	      0.1243350
	      0.1255160
	      0.1258566
	      0.1257231
	      0.1550873
	      0.1536926
	      0.1258579
	      0.1661726
	      0.1616132
	      0.1765292
	      0.1765295
	      0.1616133
	      0.1661717
	      0.1258591
	      0.1536929
	      0.1566783
	      0.1255175
	      0.1616125
	      0.1355339
	      0.1502947
	      0.1502939
	      0.1355332
	      0.1616117
	      0.1255188
	      0.1566782
	      0.1574845
	      0.1243359
	      0.1765283
	      0.1502945
	      0.1724006
	      0.1724002
	      0.1502943
	      0.1765281
	      0.1243366
	      0.1574842
	      0.1574841
	      0.1243354
	      0.1765288
	      0.1502939
	      0.1724002
	      0.1723998
	      0.1502937
	      0.1765286
	      0.1243361
	      0.1574838
	      0.1566773
	      0.1255163
	      0.1616125
	      0.1355333
	      0.1502943
	      0.1502935
	      0.1355326
	      0.1616117
	      0.1255176
	      0.1566772
	      0.1536912
	      0.1258569
	      0.1661704
	      0.1616108
	      0.1765274
	      0.1765277
	      0.1616109
	      0.1661696
	      0.1258580
	      0.1536915
	      0.1550848
	      0.1257236
	      0.1258593
	      0.1255191
	      0.1243370
	      0.1243366
	      0.1255183
	      0.1258586
	      0.1257247
	      0.1550858
	      0.1786212
	      0.1550872
	      0.1536929
	      0.1566784
	      0.1574846
	      0.1574844
	      0.1566780
	      0.1536924
	      0.1550866
	      0.1786211
	      0.1786333
	      0.1551313
	      0.1537806
	      0.1567740
	      0.1575718
	      0.1575716
	      0.1567736
	      0.1537802
	      0.1551308
	      0.1786332
	      0.1551321
	      0.1258111
	      0.1262449
	      0.1260486
	      0.1248485
	      0.1248482
	      0.1260479
	      0.1262442
	      0.1258119
	      0.1551332
	      0.1537815
	      0.1262455
	      0.1664978
	      0.1614327
	      0.1769853
	      0.1769858
	      0.1614330
	      0.1664965
	      0.1262467
	      0.1537817
	      0.1567748
	      0.1260493
	      0.1614319
	      0.1347011
	      0.1500066
	      0.1500058
	      0.1347001
	      0.1614302
	      0.1260505
	      0.1567746
	      0.1575724
	      0.1248489
	      0.1769845
	      0.1500065
	      0.1722298
	      0.1722294
	      0.1500060
	      0.1769834
	      0.1248497
	      0.1575721
	      0.1575720
	      0.1248487
	      0.1769849
	      0.1500057
	      0.1722294
	      0.1722290
	      0.1500052
	      0.1769839
	      0.1248494
	      0.1575717
	      0.1567738
	      0.1260483
	      0.1614322
	      0.1347001
	      0.1500058
	      0.1500051
	      0.1346991
	      0.1614305
	      0.1260495
	      0.1567736
	      0.1537801
	      0.1262444
	      0.1664950
	      0.1614294
	      0.1769826
	      0.1769831
	      0.1614297
	      0.1664937
	      0.1262456
	      0.1537804
	      0.1551307
	      0.1258123
	      0.1262469
	      0.1260509
	      0.1248502
	      0.1248498
	      0.1260502
	      0.1262463
	      0.1258131
	      0.1551318
	      0.1786341
	      0.1551331
	      0.1537817
	      0.1567748
	      0.1575725
	      0.1575723
	      0.1567744
	      0.1537813
	      0.1551326
	      0.1786341
	      0.2260547
	      0.1808899
	      0.1723135
	      0.1716417
	      0.1716425
	      0.1716423
	      0.1716413
	      0.1723128
	      0.1808889
	      0.2260534
	      0.1808904
	      0.1491172
	      0.1446072
	      0.1415206
	      0.1403237
	      0.1403233
	      0.1415200
	      0.1446066
	      0.1491173
	      0.1808903
	      0.1723140
	      0.1446076
	      0.1824614
	      0.1743408
	      0.1941952
	      0.1941967
	      0.1743419
	      0.1824585
	      0.1446082
	      0.1723131
	      0.1716421
	      0.1415210
	      0.1743400
	      0.1488123
	      0.1683742
	      0.1683752
	      0.1488122
	      0.1743363
	      0.1415212
	      0.1716408
	      0.1716427
	      0.1403237
	      0.1941939
	      0.1683739
	      0.1912075
	      0.1912089
	      0.1683738
	      0.1941909
	      0.1403241
	      0.1716413
	      0.1716423
	      0.1403232
	      0.1941954
	      0.1683750
	      0.1912093
	      0.1912106
	      0.1683748
	      0.1941924
	      0.1403236
	      0.1716410
	      0.1716410
	      0.1415200
	      0.1743411
	      0.1488121
	      0.1683735
	      0.1683746
	      0.1488119
	      0.1743373
	      0.1415202
	      0.1716398
	      0.1723124
	      0.1446063
	      0.1824566
	      0.1743355
	      0.1941896
	      0.1941911
	      0.1743365
	      0.1824537
	      0.1446069
	      0.1723114
	      0.1808883
	      0.1491174
	      0.1446079
	      0.1415212
	      0.1403240
	      0.1403236
	      0.1415205
	      0.1446072
	      0.1491174
	      0.1808882
	      0.2260535
	      0.1808897
	      0.1723126
	      0.1716405
	      0.1716413
	      0.1716411
	      0.1716401
	      0.1723119
	      0.1808888
	      0.2260522
	      0.2416089
	      0.1786799
	      0.1625651
	      0.1610370
	      0.1599004
	      0.1599002
	      0.1610365
	      0.1625643
	      0.1786785
	      0.2416063
	      0.1786801
	      0.1468229
	      0.1392933
	      0.1389720
	      0.1379558
	      0.1379552
	      0.1389711
	      0.1392927
	      0.1468222
	      0.1786786
	      0.1625650
	      0.1392932
	      0.1292198
	      0.1230338
	      0.1316452
	      0.1316446
	      0.1230341
	      0.1292199
	      0.1392937
	      0.1625629
	      0.1610367
	      0.1389715
	      0.1230335
	      0.1150577
	      0.1246799
	      0.1246791
	      0.1150579
	      0.1230336
	      0.1389715
	      0.1610344
	      0.1598999
	      0.1379553
	      0.1316454
	      0.1246803
	      0.1347454
	      0.1347445
	      0.1246804
	      0.1316464
	      0.1379552
	      0.1598976
	      0.1598996
	      0.1379547
	      0.1316442
	      0.1246789
	      0.1347443
	      0.1347434
	      0.1246790
	      0.1316452
	      0.1379546
	      0.1598973
	      0.1610359
	      0.1389706
	      0.1230343
	      0.1150584
	      0.1246802
	      0.1246794
	      0.1150587
	      0.1230345
	      0.1389706
	      0.1610335
	      0.1625635
	      0.1392921
	      0.1292192
	      0.1230339
	      0.1316460
	      0.1316454
	      0.1230342
	      0.1292192
	      0.1392926
	      0.1625615
	      0.1786776
	      0.1468225
	      0.1392931
	      0.1389710
	      0.1379547
	      0.1379542
	      0.1389702
	      0.1392925
	      0.1468218
	      0.1786761
	      0.2416056
	      0.1786777
	      0.1625622
	      0.1610338
	      0.1598970
	      0.1598969
	      0.1610332
	      0.1625614
	      0.1786763
	      0.2416031
	      0.1102026
	      0.0844729
	      0.0846584
	      0.0928054
	      0.0935357
	      0.0935356
	      0.0928051
	      0.0846582
	      0.0844726
	      0.1102017
	      0.0844731
	      0.0932012
	      0.0944626
	      0.1106231
	      0.1097711
	      0.1097708
	      0.1106225
	      0.0944622
	      0.0932003
	      0.0844728
	      0.0846582
	      0.0944621
	      0.0772197
	      0.0920642
	      0.0885360
	      0.0885354
	      0.0920632
	      0.0772190
	      0.0944606
	      0.0846576
	      0.0928051
	      0.1106224
	      0.0920641
	      0.1083490
	      0.1050254
	      0.1050248
	      0.1083478
	      0.0920632
	      0.1106205
	      0.0928039
	      0.0935354
	      0.1097704
	      0.0885358
	      0.1050253
	      0.1014416
	      0.1014409
	      0.1050240
	      0.0885349
	      0.1097683
	      0.0935342
	      0.0935354
	      0.1097699
	      0.0885349
	      0.1050242
	      0.1014404
	      0.1014397
	      0.1050230
	      0.0885339
	      0.1097679
	      0.0935341
	      0.0928049
	      0.1106216
	      0.0920627
	      0.1083472
	      0.1050234
	      0.1050228
	      0.1083460
	      0.0920618
	      0.1106197
	      0.0928037
	      0.0846580
	      0.0944614
	      0.0772185
	      0.0920627
	      0.0885344
	      0.0885338
	      0.0920617
	      0.0772178
	      0.0944599
	      0.0846573
	      0.0844726
	      0.0932000
	      0.0944598
	      0.1106196
	      0.1097675
	      0.1097672
	      0.1106190
	      0.0944594
	      0.0931990
	      0.0844723
	      0.1102022
	      0.0844727
	      0.0846573
	      0.0928037
	      0.0935340
	      0.0935339
	      0.0928034
	      0.0846572
	      0.0844724
	      0.1102014
	      1.4003556
	      0.7905300
	      0.7998072
	      0.8327201
	      0.7902817
	      0.7902793
	      0.8327154
	      0.7998038
	      0.7905220
	      1.4003258
	      0.7905235
	      0.1165638
	      0.1274079
	      0.1752247
	      0.1397475
	      0.1397467
	      0.1752242
	      0.1274109
	      0.1165652
	      0.7905053
	      0.7997986
	      0.1274073
	      0.1422814
	      0.2114751
	      0.1713917
	      0.1713905
	      0.2114739
	      0.1422843
	      0.1274088
	      0.7997771
	      0.8327119
	      0.1752253
	      0.2114765
	      0.2992187
	      0.2564122
	      0.2564104
	      0.2992163
	      0.2114791
	      0.1752264
	      0.8326888
	      0.7902728
	      0.1397481
	      0.1713931
	      0.2564120
	      0.2084729
	      0.2084712
	      0.2564100
	      0.1713964
	      0.1397499
	      0.7902501
	      0.7902699
	      0.1397467
	      0.1713910
	      0.2564091
	      0.2084699
	      0.2084682
	      0.2564071
	      0.1713943
	      0.1397485
	      0.7902472
	      0.8327066
	      0.1752241
	      0.2114744
	      0.2992150
	      0.2564087
	      0.2564068
	      0.2992127
	      0.2114769
	      0.1752253
	      0.8326834
	      0.7997957
	      0.1274114
	      0.1422858
	      0.2114796
	      0.1713969
	      0.1713957
	      0.2114783
	      0.1422887
	      0.1274129
	      0.7997742
	      0.7905140
	      0.1165654
	      0.1274093
	      0.1752264
	      0.1397499
	      0.1397491
	      0.1752258
	      0.1274123
	      0.1165669
	      0.7904958
	      1.4003145
	      0.7904973
	      0.7997691
	      0.8326799
	      0.7902407
	      0.7902383
	      0.8326752
	      0.7997656
	      0.7904893
	      1.4002847
