# vtk DataFile Version 3.0
test_file
ASCII
DATASET POLYDATA
POINTS 1000 float
   0.90000 	   -0.00000 	    0.00000
   0.90000 	   -0.00000 	    1.00000
   0.90000 	    0.00000 	    2.00000
   0.90000 	    0.00000 	    3.00000
   0.90000 	    0.00000 	    4.00000
   0.90000 	    0.00000 	    5.00000
   0.90000 	    0.00000 	    6.00000
   0.90000 	    0.00000 	    7.00000
   0.90000 	   -0.00000 	    8.00000
   0.90000 	    0.00000 	    9.00000
   0.90000 	    1.00000 	    0.00000
   0.90000 	    1.00000 	    1.00000
   0.90000 	    1.00000 	    2.00000
   0.90000 	    1.00000 	    3.00000
   0.90000 	    1.00000 	    4.00000
   0.90000 	    1.00000 	    5.00000
   0.90000 	    1.00000 	    6.00000
   0.90000 	    1.00000 	    7.00000
   0.90000 	    1.00000 	    8.00000
   0.90000 	    1.00000 	    9.00000
   0.90000 	    2.00000 	    0.00000
   0.90000 	    2.00000 	    1.00000
   0.90000 	    2.00000 	    2.00000
   0.90000 	    2.00000 	    3.00000
   0.90000 	    2.00000 	    4.00000
   0.90000 	    2.00000 	    5.00000
   0.90000 	    2.00000 	    6.00000
   0.90000 	    2.00000 	    7.00000
   0.90000 	    2.00000 	    8.00000
   0.90000 	    2.00000 	    9.00000
   0.90000 	    3.00000 	    0.00000
   0.90000 	    3.00000 	    1.00000
   0.90000 	    3.00000 	    2.00000
   0.90000 	    3.00000 	    3.00000
   0.90000 	    3.00000 	    4.00000
   0.90000 	    3.00000 	    5.00000
   0.90000 	    3.00000 	    6.00000
   0.90000 	    3.00000 	    7.00000
   0.90000 	    3.00000 	    8.00000
   0.90000 	    3.00000 	    9.00000
   0.90000 	    4.00000 	    0.00000
   0.90000 	    4.00000 	    1.00000
   0.90000 	    4.00000 	    2.00000
   0.90000 	    4.00000 	    3.00000
   0.90000 	    4.00000 	    4.00000
   0.90000 	    4.00000 	    5.00000
   0.90000 	    4.00000 	    6.00000
   0.90000 	    4.00000 	    7.00000
   0.90000 	    4.00000 	    8.00000
   0.90000 	    4.00000 	    9.00000
   0.90000 	    5.00000 	    0.00000
   0.90000 	    5.00000 	    1.00000
   0.90000 	    5.00000 	    2.00000
   0.90000 	    5.00000 	    3.00000
   0.90000 	    5.00000 	    4.00000
   0.90000 	    5.00000 	    5.00000
   0.90000 	    5.00000 	    6.00000
   0.90000 	    5.00000 	    7.00000
   0.90000 	    5.00000 	    8.00000
   0.90000 	    5.00000 	    9.00000
   0.90000 	    6.00000 	    0.00000
   0.90000 	    6.00000 	    1.00000
   0.90000 	    6.00000 	    2.00000
   0.90000 	    6.00000 	    3.00000
   0.90000 	    6.00000 	    4.00000
   0.90000 	    6.00000 	    5.00000
   0.90000 	    6.00000 	    6.00000
   0.90000 	    6.00000 	    7.00000
   0.90000 	    6.00000 	    8.00000
   0.90000 	    6.00000 	    9.00000
   0.90000 	    7.00000 	    0.00000
   0.90000 	    7.00000 	    1.00000
   0.90000 	    7.00000 	    2.00000
   0.90000 	    7.00000 	    3.00000
   0.90000 	    7.00000 	    4.00000
   0.90000 	    7.00000 	    5.00000
   0.90000 	    7.00000 	    6.00000
   0.90000 	    7.00000 	    7.00000
   0.90000 	    7.00000 	    8.00000
   0.90000 	    7.00000 	    9.00000
   0.90000 	    8.00000 	    0.00000
   0.90000 	    8.00000 	    1.00000
   0.90000 	    8.00000 	    2.00000
   0.90000 	    8.00000 	    3.00000
   0.90000 	    8.00000 	    4.00000
   0.90000 	    8.00000 	    5.00000
   0.90000 	    8.00000 	    6.00000
   0.90000 	    8.00000 	    7.00000
   0.90000 	    8.00000 	    8.00000
   0.90000 	    8.00000 	    9.00000
   0.90000 	    9.00000 	    0.00000
   0.90000 	    9.00000 	    1.00000
   0.90000 	    9.00000 	    2.00000
   0.90000 	    9.00000 	    3.00000
   0.90000 	    9.00000 	    4.00000
   0.90000 	    9.00000 	    5.00000
   0.90000 	    9.00000 	    6.00000
   0.90000 	    9.00000 	    7.00000
   0.90000 	    9.00000 	    8.00000
   0.90000 	    9.00000 	    9.00000
   1.91605 	   -0.16905 	   -0.16905
   1.90369 	   -0.18252 	    0.91035
   1.90165 	   -0.18258 	    1.95145
   1.90839 	   -0.18801 	    2.96140
   1.90367 	   -0.18741 	    3.98551
   1.90367 	   -0.18741 	    5.01448
   1.90839 	   -0.18801 	    6.03860
   1.90165 	   -0.18257 	    7.04855
   1.90369 	   -0.18252 	    8.08964
   1.91605 	   -0.16904 	    9.16904
   1.90369 	    0.91035 	   -0.18252
   1.87416 	    0.87965 	    0.87965
   1.86299 	    0.89122 	    1.93688
   1.86650 	    0.88684 	    2.94106
   1.86484 	    0.89084 	    3.97735
   1.86484 	    0.89084 	    5.02264
   1.86650 	    0.88684 	    6.05894
   1.86299 	    0.89122 	    7.06312
   1.87416 	    0.87965 	    8.12034
   1.90369 	    0.91036 	    9.18252
   1.90165 	    1.95145 	   -0.18257
   1.86299 	    1.93687 	    0.89122
   1.86950 	    1.94090 	    1.94090
   1.86918 	    1.94111 	    2.93063
   1.87116 	    1.94177 	    3.97331
   1.87116 	    1.94177 	    5.02668
   1.86918 	    1.94111 	    6.06936
   1.86950 	    1.94090 	    7.05909
   1.86299 	    1.93688 	    8.10877
   1.90165 	    1.95145 	    9.18257
   1.90839 	    2.96139 	   -0.18801
   1.86650 	    2.94105 	    0.88684
   1.86918 	    2.93063 	    1.94112
   1.86656 	    2.92887 	    2.92887
   1.86846 	    2.92819 	    3.97295
   1.86846 	    2.92819 	    5.02704
   1.86656 	    2.92887 	    6.07112
   1.86918 	    2.93063 	    7.05888
   1.86650 	    2.94105 	    8.11315
   1.90839 	    2.96140 	    9.18800
   1.90367 	    3.98551 	   -0.18741
   1.86484 	    3.97735 	    0.89084
   1.87116 	    3.97331 	    1.94177
   1.86846 	    3.97295 	    2.92820
   1.87024 	    3.97287 	    3.97288
   1.87024 	    3.97287 	    5.02711
   1.86846 	    3.97295 	    6.07180
   1.87116 	    3.97331 	    7.05822
   1.86484 	    3.97735 	    8.10915
   1.90367 	    3.98551 	    9.18740
   1.90367 	    5.01448 	   -0.18741
   1.86484 	    5.02264 	    0.89084
   1.87116 	    5.02667 	    1.94177
   1.86846 	    5.02703 	    2.92820
   1.87024 	    5.02711 	    3.97288
   1.87024 	    5.02711 	    5.02711
   1.86846 	    5.02703 	    6.07179
   1.87116 	    5.02667 	    7.05822
   1.86484 	    5.02264 	    8.10915
   1.90367 	    5.01448 	    9.18740
   1.90839 	    6.03860 	   -0.18801
   1.86650 	    6.05893 	    0.88684
   1.86918 	    6.06935 	    1.94112
   1.86656 	    6.07112 	    2.92887
   1.86846 	    6.07179 	    3.97295
   1.86846 	    6.07179 	    5.02703
   1.86656 	    6.07112 	    6.07112
   1.86918 	    6.06935 	    7.05888
   1.86650 	    6.05893 	    8.11315
   1.90839 	    6.03860 	    9.18800
   1.90165 	    7.04855 	   -0.18257
   1.86299 	    7.06311 	    0.89123
   1.86950 	    7.05909 	    1.94090
   1.86918 	    7.05888 	    2.93064
   1.87116 	    7.05822 	    3.97331
   1.87116 	    7.05822 	    5.02668
   1.86918 	    7.05888 	    6.06935
   1.86950 	    7.05909 	    7.05909
   1.86299 	    7.06311 	    8.10877
   1.90165 	    7.04855 	    9.18257
   1.90369 	    8.08964 	   -0.18252
   1.87416 	    8.12034 	    0.87965
   1.86299 	    8.10876 	    1.93688
   1.86650 	    8.11315 	    2.94106
   1.86484 	    8.10915 	    3.97735
   1.86484 	    8.10915 	    5.02264
   1.86650 	    8.11315 	    6.05893
   1.86299 	    8.10876 	    7.06311
   1.87416 	    8.12034 	    8.12034
   1.90369 	    8.08964 	    9.18251
   1.91605 	    9.16904 	   -0.16904
   1.90369 	    9.18251 	    0.91036
   1.90165 	    9.18257 	    1.95145
   1.90839 	    9.18800 	    2.96140
   1.90367 	    9.18740 	    3.98551
   1.90367 	    9.18740 	    5.01448
   1.90839 	    9.18800 	    6.03860
   1.90165 	    9.18256 	    7.04855
   1.90369 	    9.18251 	    8.08964
   1.91605 	    9.16904 	    9.16904
   2.69735 	   -0.24390 	   -0.24390
   2.73490 	   -0.25647 	    0.81933
   2.74732 	   -0.26534 	    1.88072
   2.74750 	   -0.27422 	    2.92681
   2.74368 	   -0.27942 	    3.97605
   2.74368 	   -0.27942 	    5.02394
   2.74750 	   -0.27422 	    6.07318
   2.74732 	   -0.26534 	    7.11928
   2.73490 	   -0.25647 	    8.18066
   2.69735 	   -0.24390 	    9.24390
   2.73490 	    0.81933 	   -0.25647
   2.81474 	    0.79822 	    0.79822
   2.84092 	    0.78729 	    1.88794
   2.84096 	    0.77995 	    2.93303
   2.83550 	    0.77155 	    3.97882
   2.83550 	    0.77155 	    5.02117
   2.84096 	    0.77995 	    6.06696
   2.84091 	    0.78730 	    7.11206
   2.81474 	    0.79822 	    8.20177
   2.73490 	    0.81934 	    9.25646
   2.74732 	    1.88072 	   -0.26534
   2.84092 	    1.88793 	    0.78730
   2.85442 	    1.88851 	    1.88851
   2.84701 	    1.88638 	    2.93374
   2.83475 	    1.87719 	    3.97911
   2.83475 	    1.87719 	    5.02088
   2.84701 	    1.88638 	    6.06625
   2.85441 	    1.88851 	    7.11148
   2.84092 	    1.88794 	    8.21269
   2.74732 	    1.88072 	    9.26533
   2.74750 	    2.92681 	   -0.27422
   2.84096 	    2.93303 	    0.77995
   2.84701 	    2.93373 	    1.88638
   2.83784 	    2.93075 	    2.93075
   2.82452 	    2.92772 	    3.97755
   2.82452 	    2.92772 	    5.02243
   2.83784 	    2.93075 	    6.06924
   2.84701 	    2.93374 	    7.11361
   2.84096 	    2.93303 	    8.22003
   2.74750 	    2.92681 	    9.27421
   2.74368 	    3.97604 	   -0.27942
   2.83550 	    3.97881 	    0.77156
   2.83475 	    3.97911 	    1.87719
   2.82452 	    3.97755 	    2.92772
   2.80980 	    3.97624 	    3.97625
   2.80980 	    3.97624 	    5.02374
   2.82452 	    3.97755 	    6.07227
   2.83475 	    3.97911 	    7.12280
   2.83550 	    3.97882 	    8.22843
   2.74368 	    3.97605 	    9.27941
   2.74368 	    5.02394 	   -0.27941
   2.83550 	    5.02117 	    0.77156
   2.83475 	    5.02088 	    1.87719
   2.82452 	    5.02243 	    2.92772
   2.80980 	    5.02374 	    3.97625
   2.80980 	    5.02374 	    5.02374
   2.82452 	    5.02243 	    6.07227
   2.83475 	    5.02088 	    7.12280
   2.83550 	    5.02117 	    8.22843
   2.74368 	    5.02394 	    9.27940
   2.74750 	    6.07318 	   -0.27421
   2.84096 	    6.06696 	    0.77995
   2.84701 	    6.06625 	    1.88638
   2.83784 	    6.06923 	    2.93076
   2.82452 	    6.07226 	    3.97755
   2.82452 	    6.07226 	    5.02244
   2.83784 	    6.06923 	    6.06923
   2.84701 	    6.06625 	    7.11361
[...]
POINT_DATA 1000
SCALARS C float
LOOKUP_TABLE default
	      1.3284971
	      0.7520642
	      0.7592638
	      0.7896116
	      0.7494657
	      0.7494624
	      0.7896061
	      0.7592625
	      0.7520572
	      1.3284671
	      0.7520575
	      0.1159782
	      0.1250547
	      0.1690782
	      0.1359338
	      0.1359318
	      0.1690761
	      0.1250588
	      0.1159788
	      0.7520390
	      0.7592552
	      0.1250543
	      0.1382062
	      0.2022776
	      0.1650764
	      0.1650741
	      0.2022747
	      0.1382104
	      0.1250568
	      0.7592331
	      0.7896036
	      0.1690792
	      0.2022794
	      0.2835895
	      0.2436734
	      0.2436707
	      0.2835856
	      0.2022829
	      0.1690816
	      0.7895802
	      0.7494570
	      0.1359346
	      0.1650780
	      0.2436731
	      0.1985449
	      0.1985423
	      0.2436694
	      0.1650817
	      0.1359374
	      0.7494341
	      0.7494530
	      0.1359316
	      0.1650744
	      0.2436688
	      0.1985408
	      0.1985382
	      0.2436651
	      0.1650781
	      0.1359344
	      0.7494301
	      0.7895974
	      0.1690760
	      0.2022751
	      0.2835837
	      0.2436675
	      0.2436648
	      0.2835798
	      0.2022786
	      0.1690783
	      0.7895740
	      0.7592547
	      0.1250598
	      0.1382125
	      0.2022833
	      0.1650820
	      0.1650797
	      0.2022804
	      0.1382167
	      0.1250623
	      0.7592326
	      0.7520490
	      0.1159787
	      0.1250578
	      0.1690815
	      0.1359373
	      0.1359352
	      0.1690794
	      0.1250619
	      0.1159793
	      0.7520305
	      1.3284568
	      0.7520308
	      0.7592253
	      0.7895715
	      0.7494247
	      0.7494214
	      0.7895660
	      0.7592240
	      0.7520238
	      1.3284269
	      0.1038176
	      0.0798099
	      0.0800388
	      0.0877490
	      0.0885106
	      0.0885106
	      0.0877490
	      0.0800386
	      0.0798095
	      0.1038170
	      0.0798101
	      0.0880543
	      0.0895640
	      0.1050343
	      0.1041316
	      0.1041313
	      0.1050345
	      0.0895633
	      0.0880538
	      0.0798090
	      0.0800386
	      0.0895636
	      0.0742475
	      0.0887051
	      0.0851452
	      0.0851446
	      0.0887056
	      0.0742468
	      0.0895632
	      0.0800371
	      0.0877485
	      0.1050337
	      0.0887047
	      0.1045621
	      0.1010635
	      0.1010627
	      0.1045625
	      0.0887039
	      0.1050332
	      0.0877465
	      0.0885102
	      0.1041311
	      0.0851451
	      0.1010636
	      0.0972292
	      0.0972282
	      0.1010640
	      0.0851444
	      0.1041305
	      0.0885083
	      0.0885102
	      0.1041308
	      0.0851443
	      0.1010625
	      0.0972278
	      0.0972268
	      0.1010628
	      0.0851435
	      0.1041302
	      0.0885082
	      0.0877485
	      0.1050340
	      0.0887054
	      0.1045626
	      0.1010638
	      0.1010630
	      0.1045630
	      0.0887046
	      0.1050335
	      0.0877465
	      0.0800382
	      0.0895627
	      0.0742462
	      0.0887037
	      0.0851440
	      0.0851434
	      0.0887042
	      0.0742455
	      0.0895623
	      0.0800367
	      0.0798092
	      0.0880537
	      0.0895626
	      0.1050327
	      0.1041300
	      0.1041298
	      0.1050328
	      0.0895619
	      0.0880533
	      0.0798081
	      0.1038171
	      0.0798088
	      0.0800366
	      0.0877460
	      0.0885079
	      0.0885078
	      0.0877460
	      0.0800364
	      0.0798083
	      0.1038165
	      0.2307411
	      0.1704376
	      0.1550973
	      0.1537476
	      0.1527763
	      0.1527762
	      0.1537473
	      0.1550966
	      0.1704361
	      0.2307389
	      0.1704377
	      0.1392642
	      0.1321114
	      0.1319754
	      0.1311389
	      0.1311385
	      0.1319749
	      0.1321106
	      0.1392628
	      0.1704374
	      0.1550974
	      0.1321109
	      0.1203416
	      0.1142188
	      0.1231823
	      0.1231828
	      0.1142198
	      0.1203389
	      0.1321095
	      0.1550969
	      0.1537475
	      0.1319746
	      0.1142182
	      0.1063433
	      0.1164107
	      0.1164107
	      0.1063444
	      0.1142156
	      0.1319729
	      0.1537468
	      0.1527762
	      0.1311382
	      0.1231818
	      0.1164109
	      0.1277048
	      0.1277056
	      0.1164122
	      0.1231792
	      0.1311364
	      0.1527754
	      0.1527760
	      0.1311378
	      0.1231819
	      0.1164108
	      0.1277056
	      0.1277064
	      0.1164120
	      0.1231794
	      0.1311360
	      0.1527752
	      0.1537469
	      0.1319742
	      0.1142193
	      0.1063449
	      0.1164123
	      0.1164123
	      0.1063460
	      0.1142168
	      0.1319725
	      0.1537462
	      0.1550960
	      0.1321097
	      0.1203373
	      0.1142152
	      0.1231783
	      0.1231788
	      0.1142161
	      0.1203347
	      0.1321083
	      0.1550955
	      0.1704356
	      0.1392628
	      0.1321087
	      0.1319722
	      0.1311357
	      0.1311353
	      0.1319717
	      0.1321078
	      0.1392614
	      0.1704353
	      0.2307387
	      0.1704369
	      0.1550964
	      0.1537464
	      0.1527752
	      0.1527751
	      0.1537461
	      0.1550956
	      0.1704354
	      0.2307366
	      0.2168379
	      0.1730020
	      0.1646196
	      0.1639311
	      0.1639827
	      0.1639826
	      0.1639308
	      0.1646189
	      0.1730008
	      0.2168366
	      0.1730025
	      0.1420472
	      0.1373083
	      0.1342087
	      0.1332695
	      0.1332692
	      0.1342080
	      0.1373075
	      0.1420475
	      0.1730023
	      0.1646201
	      0.1373087
	      0.1750342
	      0.1679330
	      0.1847006
	      0.1847004
	      0.1679335
	      0.1750329
	      0.1373092
	      0.1646193
	      0.1639314
	      0.1342089
	      0.1679322
	      0.1447885
	      0.1610979
	      0.1610967
	      0.1447882
	      0.1679304
	      0.1342087
	      0.1639304
	      0.1639828
	      0.1332695
	      0.1846998
	      0.1610978
	      0.1809894
	      0.1809887
	      0.1610976
	      0.1846981
	      0.1332695
	      0.1639817
	      0.1639825
	      0.1332692
	      0.1846994
	      0.1610963
	      0.1809883
	      0.1809876
	      0.1610961
	      0.1846977
	      0.1332691
	      0.1639814
	      0.1639305
	      0.1342080
	      0.1679327
	      0.1447884
	      0.1610971
	      0.1610960
	      0.1447881
	      0.1679309
	      0.1342078
	      0.1639295
	      0.1646184
	      0.1373073
	      0.1750314
	      0.1679296
	      0.1846971
	      0.1846969
	      0.1679301
	      0.1750301
	      0.1373078
	      0.1646176
	      0.1730002
	      0.1420477
	      0.1373090
	      0.1342087
	      0.1332695
	      0.1332692
	      0.1342080
	      0.1373081
	      0.1420480
	      0.1730000
	      0.2168364
	      0.1730017
	      0.1646188
	      0.1639302
	      0.1639816
	      0.1639815
	      0.1639298
	      0.1646181
	      0.1730005
	      0.2168351
	      0.1724102
	      0.1489109
	      0.1473996
	      0.1501884
	      0.1509797
	      0.1509795
	      0.1501880
	      0.1473991
	      0.1489103
	      0.1724100
	      0.1489116
	      0.1204042
	      0.1206921
	      0.1205959
	      0.1195960
	      0.1195956
	      0.1205952
	      0.1206915
	      0.1204052
	      0.1489126
	      0.1474004
	      0.1206926
	      0.1556613
	      0.1515088
	      0.1660990
	      0.1661003
	      0.1515091
	      0.1556592
	      0.1206943
	      0.1474007
	      0.1501891
	      0.1205966
	      0.1515081
	      0.1278504
	      0.1421728
	      0.1421734
	      0.1278498
	      0.1515053
	      0.1205982
	      0.1501891
	      0.1509803
	      0.1195965
	      0.1660979
	      0.1421727
	      0.1622974
	      0.1622975
	      0.1421724
	      0.1660966
	      0.1195978
	      0.1509801
	      0.1509799
	      0.1195961
	      0.1660994
	      0.1421735
	      0.1622980
	      0.1622981
	      0.1421732
	      0.1660982
	      0.1195974
	      0.1509797
	      0.1501882
	      0.1205956
	      0.1515082
	      0.1278498
	      0.1421725
	      0.1421731
	      0.1278491
	      0.1515054
	      0.1205972
	      0.1501881
	      0.1473990
	      0.1206918
	      0.1556578
	      0.1515043
	      0.1660957
	      0.1660970
	      0.1515046
	      0.1556557
	      0.1206935
	      0.1473993
	      0.1489102
	      0.1204058
	      0.1206946
	      0.1205986
	      0.1195983
	      0.1195979
	      0.1205979
	      0.1206940
	      0.1204067
	      0.1489111
	      0.1724108
	      0.1489125
	      0.1474006
	      0.1501892
	      0.1509804
	      0.1509802
	      0.1501888
	      0.1474001
	      0.1489118
	      0.1724106
	      0.1724417
	      0.1489499
	      0.1474501
	      0.1502430
	      0.1510548
	      0.1510547
	      0.1502426
	      0.1474496
	      0.1489494
	      0.1724416
	      0.1489506
	      0.1205190
	      0.1210078
	      0.1209539
	      0.1199685
	      0.1199682
	      0.1209533
	      0.1210072
	      0.1205197
	      0.1489516
	      0.1474509
	      0.1210084
	      0.1548598
	      0.1506696
	      0.1653084
	      0.1653087
	      0.1506701
	      0.1548586
	      0.1210098
	      0.1474511
	      0.1502437
	      0.1209546
	      0.1506690
	      0.1273157
	      0.1420802
	      0.1420798
	      0.1273150
	      0.1506673
	      0.1209556
	      0.1502436
	      0.1510554
	      0.1199689
	      0.1653075
	      0.1420802
	      0.1629628
	      0.1629625
	      0.1420801
	      0.1653070
	      0.1199697
	      0.1510551
	      0.1510550
	      0.1199686
	      0.1653079
	      0.1420797
	      0.1629625
	      0.1629621
	      0.1420796
	      0.1653074
	      0.1199694
	      0.1510548
	      0.1502428
	      0.1209536
	      0.1506695
	      0.1273149
	      0.1420799
	      0.1420796
	      0.1273142
	      0.1506677
	      0.1209547
	      0.1502426
	      0.1474496
	      0.1210073
	      0.1548572
	      0.1506666
	      0.1653062
	      0.1653065
	      0.1506671
	      0.1548560
	      0.1210087
	      0.1474498
	      0.1489493
	      0.1205201
	      0.1210099
	      0.1209560
	      0.1199701
	      0.1199698
	      0.1209553
	      0.1210093
	      0.1205208
	      0.1489503
	      0.1724425
	      0.1489515
	      0.1474511
	      0.1502438
	      0.1510555
	      0.1510553
	      0.1502434
	      0.1474506
	      0.1489510
	      0.1724424
	      0.2169727
	      0.1731208
	      0.1647582
	      0.1640627
	      0.1641330
	      0.1641328
	      0.1640623
	      0.1647576
	      0.1731198
	      0.2169715
	      0.1731212
	      0.1421552
	      0.1375932
	      0.1345287
	      0.1336053
	      0.1336049
	      0.1345280
	      0.1375924
	      0.1421552
	      0.1731211
	      0.1647587
	      0.1375935
	      0.1733504
	      0.1670624
	      0.1837490
	      0.1837494
	      0.1670629
	      0.1733486
	      0.1375936
	      0.1647577
	      0.1640630
	      0.1345289
	      0.1670617
	      0.1449787
	      0.1611899
	      0.1611894
	      0.1449781
	      0.1670595
	      0.1345283
	      0.1640616
	      0.1641330
	      0.1336050
	      0.1837480
	      0.1611897
	      0.1810620
	      0.1810623
	      0.1611893
	      0.1837458
	      0.1336046
	      0.1641316
	      0.1641327
	      0.1336046
	      0.1837486
	      0.1611891
	      0.1810621
	      0.1810624
	      0.1611887
	      0.1837464
	      0.1336042
	      0.1641313
	      0.1640620
	      0.1345279
	      0.1670621
	      0.1449780
	      0.1611891
	      0.1611885
	      0.1449773
	      0.1670600
	      0.1345272
	      0.1640606
	      0.1647571
	      0.1375919
	      0.1733470
	      0.1670587
	      0.1837451
	      0.1837455
	      0.1670593
	      0.1733452
	      0.1375920
	      0.1647560
	      0.1731192
	      0.1421552
	      0.1375931
	      0.1345281
	      0.1336043
	      0.1336039
	      0.1345274
	      0.1375923
	      0.1421552
	      0.1731190
	      0.2169715
	      0.1731205
	      0.1647572
	      0.1640613
	      0.1641315
	      0.1641314
	      0.1640609
	      0.1647565
	      0.1731195
	      0.2169702
	      0.2311493
	      0.1707085
	      0.1553756
	      0.1540184
	      0.1530403
	      0.1530401
	      0.1540178
	      0.1553749
	      0.1707072
	      0.2311468
	      0.1707087
	      0.1392724
	      0.1320010
	      0.1317806
	      0.1309727
	      0.1309722
	      0.1317798
	      0.1320004
	      0.1392718
	      0.1707072
	      0.1553755
	      0.1320008
	      0.1215309
	      0.1160447
	      0.1239227
	      0.1239239
	      0.1160452
	      0.1215296
	      0.1320019
	      0.1553735
	      0.1540181
	      0.1317803
	      0.1160443
	      0.1088199
	      0.1169965
	      0.1169968
	      0.1088200
	      0.1160432
	      0.1317814
	      0.1540158
	      0.1530398
	      0.1309725
	      0.1239224
	      0.1169965
	      0.1260471
	      0.1260481
	      0.1169966
	      0.1239212
	      0.1309736
	      0.1530375
	      0.1530395
	      0.1309719
	      0.1239235
	      0.1169969
	      0.1260482
	      0.1260491
	      0.1169970
	      0.1239224
	      0.1309730
	      0.1530372
	      0.1540172
	      0.1317795
	      0.1160449
	      0.1088202
	      0.1169967
	      0.1169969
	      0.1088203
	      0.1160438
	      0.1317806
	      0.1540149
	      0.1553741
	      0.1320001
	      0.1215290
	      0.1160429
	      0.1239209
	      0.1239220
	      0.1160434
	      0.1215278
	      0.1320011
	      0.1553721
	      0.1707063
	      0.1392722
	      0.1320015
	      0.1317811
	      0.1309733
	      0.1309728
	      0.1317803
	      0.1320010
	      0.1392716
	      0.1707048
	      0.2311462
	      0.1707063
	      0.1553727
	      0.1540151
	      0.1530369
	      0.1530367
	      0.1540146
	      0.1553720
	      0.1707050
	      0.2311437
	      0.1042965
	      0.0801113
	      0.0803423
	      0.0880863
	      0.0888696
	      0.0888695
	      0.0880861
	      0.0803422
	      0.0801111
	      0.1042957
	      0.0801115
	      0.0879843
	      0.0893034
	      0.1047681
	      0.1039115
	      0.1039111
	      0.1047675
	      0.0893030
	      0.0879835
	      0.0801112
	      0.0803422
	      0.0893029
	      0.0735833
	      0.0877483
	      0.0844279
	      0.0844270
	      0.0877472
	      0.0735828
	      0.0893016
	      0.0803416
	      0.0880860
	      0.1047674
	      0.0877483
	      0.1033272
	      0.1003807
	      0.1003798
	      0.1033260
	      0.0877477
	      0.1047656
	      0.0880849
	      0.0888694
	      0.1039108
	      0.0844278
	      0.1003807
	      0.0973884
	      0.0973874
	      0.1003795
	      0.0844274
	      0.1039090
	      0.0888681
	      0.0888693
	      0.1039103
	      0.0844266
	      0.1003793
	      0.0973870
	      0.0973861
	      0.1003782
	      0.0844262
	      0.1039085
	      0.0888680
	      0.0880858
	      0.1047666
	      0.0877468
	      0.1033254
	      0.1003790
	      0.1003781
	      0.1033243
	      0.0877463
	      0.1047648
	      0.0880847
	      0.0803420
	      0.0893022
	      0.0735824
	      0.0877473
	      0.0844270
	      0.0844261
	      0.0877462
	      0.0735819
	      0.0893009
	      0.0803413
	      0.0801111
	      0.0879832
	      0.0893008
	      0.1047648
	      0.1039082
	      0.1039078
	      0.1047642
	      0.0893004
	      0.0879824
	      0.0801108
	      0.1042962
	      0.0801111
	      0.0803413
	      0.0880846
	      0.0888679
	      0.0888678
	      0.0880844
	      0.0803412
	      0.0801110
	      0.1042954
	      1.3286974
	      0.7522056
	      0.7593628
	      0.7902239
	      0.7500216
	      0.7500194
	      0.7902194
	      0.7593594
	      0.7521978
	      1.3286686
	      0.7521994
	      0.1169999
	      0.1255480
	      0.1696138
	      0.1363521
	      0.1363514
	      0.1696132
	      0.1255505
	      0.1170010
	      0.7521818
	      0.7593546
	      0.1255473
	      0.1379507
	      0.2022949
	      0.1647773
	      0.1647763
	      0.2022937
	      0.1379531
	      0.1255486
	      0.7593339
	      0.7902160
	      0.1696142
	      0.2022962
	      0.2842891
	      0.2440915
	      0.2440900
	      0.2842870
	      0.2022982
	      0.1696152
	      0.7901940
	      0.7500132
	      0.1363526
	      0.1647785
	      0.2440913
	      0.1987272
	      0.1987259
	      0.2440895
	      0.1647811
	      0.1363541
	      0.7499915
	      0.7500104
	      0.1363513
	      0.1647767
	      0.2440889
	      0.1987248
	      0.1987235
	      0.2440870
	      0.1647793
	      0.1363529
	      0.7499887
	      0.7902108
	      0.1696130
	      0.2022941
	      0.2842858
	      0.2440883
	      0.2440868
	      0.2842837
	      0.2022961
	      0.1696140
	      0.7901887
	      0.7593516
	      0.1255509
	      0.1379544
	      0.2022985
	      0.1647815
	      0.1647805
	      0.2022974
	      0.1379568
	      0.1255522
	      0.7593309
	      0.7521900
	      0.1170012
	      0.1255490
	      0.1696150
	      0.1363540
	      0.1363533
	      0.1696144
	      0.1255515
	      0.1170023
	      0.7521724
	      1.3286577
	      0.7521740
	      0.7593261
	      0.7901854
	      0.7499824
	      0.7499803
	      0.7901809
	      0.7593227
	      0.7521662
	      1.3286288
