# vtk DataFile Version 3.0
test_file
ASCII
DATASET POLYDATA
POINTS 1000 float
   0.27500 	   -0.00000 	    0.00000
   0.27500 	   -0.00000 	    1.00000
   0.27500 	    0.00000 	    2.00000
   0.27500 	    0.00000 	    3.00000
   0.27500 	    0.00000 	    4.00000
   0.27500 	    0.00000 	    5.00000
   0.27500 	    0.00000 	    6.00000
   0.27500 	    0.00000 	    7.00000
   0.27500 	   -0.00000 	    8.00000
   0.27500 	    0.00000 	    9.00000
   0.27500 	    1.00000 	    0.00000
   0.27500 	    1.00000 	    1.00000
   0.27500 	    1.00000 	    2.00000
   0.27500 	    1.00000 	    3.00000
   0.27500 	    1.00000 	    4.00000
   0.27500 	    1.00000 	    5.00000
   0.27500 	    1.00000 	    6.00000
   0.27500 	    1.00000 	    7.00000
   0.27500 	    1.00000 	    8.00000
   0.27500 	    1.00000 	    9.00000
   0.27500 	    2.00000 	    0.00000
   0.27500 	    2.00000 	    1.00000
   0.27500 	    2.00000 	    2.00000
   0.27500 	    2.00000 	    3.00000
   0.27500 	    2.00000 	    4.00000
   0.27500 	    2.00000 	    5.00000
   0.27500 	    2.00000 	    6.00000
   0.27500 	    2.00000 	    7.00000
   0.27500 	    2.00000 	    8.00000
   0.27500 	    2.00000 	    9.00000
   0.27500 	    3.00000 	    0.00000
   0.27500 	    3.00000 	    1.00000
   0.27500 	    3.00000 	    2.00000
   0.27500 	    3.00000 	    3.00000
   0.27500 	    3.00000 	    4.00000
   0.27500 	    3.00000 	    5.00000
   0.27500 	    3.00000 	    6.00000
   0.27500 	    3.00000 	    7.00000
   0.27500 	    3.00000 	    8.00000
   0.27500 	    3.00000 	    9.00000
   0.27500 	    4.00000 	    0.00000
   0.27500 	    4.00000 	    1.00000
   0.27500 	    4.00000 	    2.00000
   0.27500 	    4.00000 	    3.00000
   0.27500 	    4.00000 	    4.00000
   0.27500 	    4.00000 	    5.00000
   0.27500 	    4.00000 	    6.00000
   0.27500 	    4.00000 	    7.00000
   0.27500 	    4.00000 	    8.00000
   0.27500 	    4.00000 	    9.00000
   0.27500 	    5.00000 	    0.00000
   0.27500 	    5.00000 	    1.00000
   0.27500 	    5.00000 	    2.00000
   0.27500 	    5.00000 	    3.00000
   0.27500 	    5.00000 	    4.00000
   0.27500 	    5.00000 	    5.00000
   0.27500 	    5.00000 	    6.00000
   0.27500 	    5.00000 	    7.00000
   0.27500 	    5.00000 	    8.00000
   0.27500 	    5.00000 	    9.00000
   0.27500 	    6.00000 	    0.00000
   0.27500 	    6.00000 	    1.00000
   0.27500 	    6.00000 	    2.00000
   0.27500 	    6.00000 	    3.00000
   0.27500 	    6.00000 	    4.00000
   0.27500 	    6.00000 	    5.00000
   0.27500 	    6.00000 	    6.00000
   0.27500 	    6.00000 	    7.00000
   0.27500 	    6.00000 	    8.00000
   0.27500 	    6.00000 	    9.00000
   0.27500 	    7.00000 	    0.00000
   0.27500 	    7.00000 	    1.00000
   0.27500 	    7.00000 	    2.00000
   0.27500 	    7.00000 	    3.00000
   0.27500 	    7.00000 	    4.00000
   0.27500 	    7.00000 	    5.00000
   0.27500 	    7.00000 	    6.00000
   0.27500 	    7.00000 	    7.00000
   0.27500 	    7.00000 	    8.00000
   0.27500 	    7.00000 	    9.00000
   0.27500 	    8.00000 	    0.00000
   0.27500 	    8.00000 	    1.00000
   0.27500 	    8.00000 	    2.00000
   0.27500 	    8.00000 	    3.00000
   0.27500 	    8.00000 	    4.00000
   0.27500 	    8.00000 	    5.00000
   0.27500 	    8.00000 	    6.00000
   0.27500 	    8.00000 	    7.00000
   0.27500 	    8.00000 	    8.00000
   0.27500 	    8.00000 	    9.00000
   0.27500 	    9.00000 	    0.00000
   0.27500 	    9.00000 	    1.00000
   0.27500 	    9.00000 	    2.00000
   0.27500 	    9.00000 	    3.00000
   0.27500 	    9.00000 	    4.00000
   0.27500 	    9.00000 	    5.00000
   0.27500 	    9.00000 	    6.00000
   0.27500 	    9.00000 	    7.00000
   0.27500 	    9.00000 	    8.00000
   0.27500 	    9.00000 	    9.00000
   1.27189 	   -0.04782 	   -0.04782
   1.26895 	   -0.05171 	    0.97215
   1.26698 	   -0.05252 	    1.98582
   1.26813 	   -0.05429 	    2.98853
   1.26735 	   -0.05429 	    3.99548
   1.26735 	   -0.05429 	    5.00452
   1.26813 	   -0.05429 	    6.01147
   1.26698 	   -0.05252 	    7.01418
   1.26895 	   -0.05171 	    8.02785
   1.27189 	   -0.04781 	    9.04782
   1.26895 	    0.97215 	   -0.05171
   1.26950 	    0.96192 	    0.96192
   1.26379 	    0.96388 	    1.98507
   1.26453 	    0.96257 	    2.98112
   1.26489 	    0.96377 	    3.99193
   1.26489 	    0.96377 	    5.00807
   1.26453 	    0.96257 	    6.01888
   1.26379 	    0.96388 	    7.01493
   1.26950 	    0.96192 	    8.03808
   1.26895 	    0.97215 	    9.05171
   1.26698 	    1.98582 	   -0.05252
   1.26379 	    1.98507 	    0.96388
   1.26168 	    1.98606 	    1.98606
   1.26095 	    1.98648 	    2.97591
   1.26261 	    1.98610 	    3.99020
   1.26261 	    1.98610 	    5.00979
   1.26095 	    1.98648 	    6.02409
   1.26168 	    1.98606 	    7.01394
   1.26379 	    1.98507 	    8.03611
   1.26698 	    1.98582 	    9.05251
   1.26813 	    2.98853 	   -0.05429
   1.26453 	    2.98112 	    0.96257
   1.26095 	    2.97591 	    1.98648
   1.25929 	    2.97545 	    2.97545
   1.26081 	    2.97463 	    3.99031
   1.26081 	    2.97463 	    5.00969
   1.25929 	    2.97545 	    6.02454
   1.26095 	    2.97591 	    7.01352
   1.26453 	    2.98112 	    8.03743
   1.26813 	    2.98853 	    9.05429
   1.26735 	    3.99548 	   -0.05429
   1.26489 	    3.99193 	    0.96377
   1.26261 	    3.99020 	    1.98610
   1.26081 	    3.99031 	    2.97463
   1.26233 	    3.99009 	    3.99009
   1.26233 	    3.99009 	    5.00991
   1.26081 	    3.99031 	    6.02537
   1.26261 	    3.99020 	    7.01390
   1.26489 	    3.99193 	    8.03623
   1.26735 	    3.99548 	    9.05429
   1.26735 	    5.00452 	   -0.05429
   1.26488 	    5.00807 	    0.96377
   1.26261 	    5.00979 	    1.98610
   1.26081 	    5.00969 	    2.97463
   1.26233 	    5.00990 	    3.99009
   1.26233 	    5.00990 	    5.00991
   1.26081 	    5.00969 	    6.02537
   1.26261 	    5.00979 	    7.01390
   1.26488 	    5.00807 	    8.03623
   1.26735 	    5.00451 	    9.05429
   1.26813 	    6.01147 	   -0.05429
   1.26453 	    6.01888 	    0.96257
   1.26095 	    6.02409 	    1.98648
   1.25929 	    6.02454 	    2.97545
   1.26081 	    6.02536 	    3.99031
   1.26081 	    6.02536 	    5.00969
   1.25929 	    6.02454 	    6.02454
   1.26095 	    6.02409 	    7.01352
   1.26453 	    6.01888 	    8.03743
   1.26813 	    6.01147 	    9.05429
   1.26698 	    7.01418 	   -0.05252
   1.26379 	    7.01493 	    0.96388
   1.26168 	    7.01394 	    1.98606
   1.26095 	    7.01352 	    2.97591
   1.26261 	    7.01390 	    3.99020
   1.26261 	    7.01390 	    5.00979
   1.26095 	    7.01352 	    6.02409
   1.26168 	    7.01394 	    7.01394
   1.26379 	    7.01493 	    8.03611
   1.26698 	    7.01417 	    9.05251
   1.26895 	    8.02785 	   -0.05171
   1.26949 	    8.03808 	    0.96192
   1.26379 	    8.03611 	    1.98507
   1.26453 	    8.03743 	    2.98112
   1.26489 	    8.03623 	    3.99193
   1.26488 	    8.03623 	    5.00807
   1.26453 	    8.03743 	    6.01888
   1.26379 	    8.03611 	    7.01493
   1.26949 	    8.03808 	    8.03808
   1.26895 	    8.02785 	    9.05171
   1.27189 	    9.04782 	   -0.04781
   1.26895 	    9.05171 	    0.97215
   1.26699 	    9.05251 	    1.98582
   1.26813 	    9.05429 	    2.98853
   1.26735 	    9.05429 	    3.99548
   1.26735 	    9.05429 	    5.00452
   1.26813 	    9.05429 	    6.01147
   1.26699 	    9.05251 	    7.01417
   1.26895 	    9.05171 	    8.02785
   1.27189 	    9.04781 	    9.04781
   2.21277 	   -0.06902 	   -0.06902
   2.22353 	   -0.07279 	    0.94763
   2.22643 	   -0.07644 	    1.96559
   2.22583 	   -0.07964 	    2.97883
   2.22479 	   -0.08127 	    3.99306
   2.22479 	   -0.08127 	    5.00694
   2.22583 	   -0.07964 	    6.02117
   2.22643 	   -0.07644 	    7.03441
   2.22353 	   -0.07278 	    8.05237
   2.21277 	   -0.06902 	    9.06902
   2.22353 	    0.94763 	   -0.07279
   2.25270 	    0.94177 	    0.94177
   2.26299 	    0.93543 	    1.97097
   2.26031 	    0.93278 	    2.98133
   2.25886 	    0.93048 	    3.99431
   2.25886 	    0.93048 	    5.00569
   2.26031 	    0.93278 	    6.01867
   2.26299 	    0.93543 	    7.02902
   2.25270 	    0.94177 	    8.05822
   2.22353 	    0.94763 	    9.07278
   2.22643 	    1.96559 	   -0.07644
   2.26300 	    1.97097 	    0.93543
   2.26654 	    1.96728 	    1.96728
   2.26035 	    1.96644 	    2.98484
   2.25815 	    1.96443 	    3.99547
   2.25815 	    1.96443 	    5.00453
   2.26035 	    1.96644 	    6.01515
   2.26654 	    1.96728 	    7.03272
   2.26300 	    1.97097 	    8.06457
   2.22643 	    1.96559 	    9.07644
   2.22583 	    2.97883 	   -0.07964
   2.26031 	    2.98133 	    0.93278
   2.26035 	    2.98484 	    1.96644
   2.25368 	    2.98379 	    2.98379
   2.25116 	    2.98318 	    3.99474
   2.25116 	    2.98318 	    5.00526
   2.25368 	    2.98379 	    6.01620
   2.26035 	    2.98484 	    7.03355
   2.26032 	    2.98133 	    8.06722
   2.22584 	    2.97883 	    9.07964
   2.22479 	    3.99306 	   -0.08127
   2.25886 	    3.99431 	    0.93048
   2.25815 	    3.99547 	    1.96443
   2.25116 	    3.99474 	    2.98318
   2.24829 	    3.99435 	    3.99435
   2.24828 	    3.99435 	    5.00565
   2.25116 	    3.99474 	    6.01682
   2.25815 	    3.99547 	    7.03556
   2.25886 	    3.99431 	    8.06952
   2.22479 	    3.99306 	    9.08127
   2.22479 	    5.00694 	   -0.08127
   2.25886 	    5.00569 	    0.93048
   2.25815 	    5.00453 	    1.96443
   2.25116 	    5.00526 	    2.98318
   2.24828 	    5.00565 	    3.99435
   2.24828 	    5.00565 	    5.00565
   2.25116 	    5.00526 	    6.01682
   2.25815 	    5.00453 	    7.03556
   2.25886 	    5.00569 	    8.06952
   2.22479 	    5.00694 	    9.08127
   2.22583 	    6.02117 	   -0.07964
   2.26031 	    6.01866 	    0.93278
   2.26035 	    6.01515 	    1.96644
   2.25367 	    6.01620 	    2.98379
   2.25116 	    6.01682 	    3.99474
   2.25116 	    6.01682 	    5.00526
   2.25367 	    6.01620 	    6.01620
   2.26035 	    6.01515 	    7.03356
[...]
POINT_DATA 1000
SCALARS C float
LOOKUP_TABLE default
	      0.7933004
	      0.4537252
	      0.4372489
	      0.4577939
	      0.4412202
	      0.4412178
	      0.4577905
	      0.4372471
	      0.4537180
	      0.7932776
	      0.4537208
	      0.1211885
	      0.1087355
	      0.1286094
	      0.1136824
	      0.1136809
	      0.1286086
	      0.1087377
	      0.1211873
	      0.4537061
	      0.4372428
	      0.1087346
	      0.1016739
	      0.1299392
	      0.1139498
	      0.1139477
	      0.1299378
	      0.1016764
	      0.1087342
	      0.4372269
	      0.4577878
	      0.1286092
	      0.1299401
	      0.1663147
	      0.1500679
	      0.1500657
	      0.1663129
	      0.1299425
	      0.1286085
	      0.4577706
	      0.4412138
	      0.1136824
	      0.1139508
	      0.1500680
	      0.1318483
	      0.1318461
	      0.1500665
	      0.1139534
	      0.1136818
	      0.4411965
	      0.4412106
	      0.1136801
	      0.1139478
	      0.1500646
	      0.1318450
	      0.1318429
	      0.1500631
	      0.1139504
	      0.1136796
	      0.4411933
	      0.4577839
	      0.1286080
	      0.1299381
	      0.1663120
	      0.1500654
	      0.1500631
	      0.1663102
	      0.1299404
	      0.1286073
	      0.4577668
	      0.4372414
	      0.1087376
	      0.1016774
	      0.1299427
	      0.1139535
	      0.1139514
	      0.1299413
	      0.1016800
	      0.1087372
	      0.4372255
	      0.4537118
	      0.1211864
	      0.1087341
	      0.1286079
	      0.1136810
	      0.1136795
	      0.1286071
	      0.1087363
	      0.1211852
	      0.4536971
	      0.7932684
	      0.4536999
	      0.4372212
	      0.4577641
	      0.4411893
	      0.4411868
	      0.4577607
	      0.4372194
	      0.4536927
	      0.7932456
	      0.0659402
	      0.0503351
	      0.0495702
	      0.0540598
	      0.0544151
	      0.0544151
	      0.0540597
	      0.0495700
	      0.0503350
	      0.0659397
	      0.0503353
	      0.0491623
	      0.0483583
	      0.0581394
	      0.0571945
	      0.0571942
	      0.0581393
	      0.0483578
	      0.0491622
	      0.0503350
	      0.0495702
	      0.0483581
	      0.0421804
	      0.0496822
	      0.0477736
	      0.0477731
	      0.0496821
	      0.0421797
	      0.0483582
	      0.0495696
	      0.0540596
	      0.0581391
	      0.0496820
	      0.0561713
	      0.0540257
	      0.0540251
	      0.0561711
	      0.0496811
	      0.0581390
	      0.0540586
	      0.0544150
	      0.0571943
	      0.0477734
	      0.0540257
	      0.0520076
	      0.0520071
	      0.0540255
	      0.0477725
	      0.0571941
	      0.0544141
	      0.0544150
	      0.0571939
	      0.0477727
	      0.0540249
	      0.0520068
	      0.0520062
	      0.0540247
	      0.0477718
	      0.0571937
	      0.0544141
	      0.0540596
	      0.0581390
	      0.0496818
	      0.0561710
	      0.0540253
	      0.0540247
	      0.0561708
	      0.0496809
	      0.0581389
	      0.0540585
	      0.0495698
	      0.0483574
	      0.0421792
	      0.0496808
	      0.0477721
	      0.0477717
	      0.0496807
	      0.0421785
	      0.0483575
	      0.0495693
	      0.0503350
	      0.0491623
	      0.0483579
	      0.0581386
	      0.0571939
	      0.0571936
	      0.0581386
	      0.0483574
	      0.0491623
	      0.0503347
	      0.0659399
	      0.0503350
	      0.0495694
	      0.0540585
	      0.0544140
	      0.0544140
	      0.0540584
	      0.0495692
	      0.0503349
	      0.0659394
	      0.1488147
	      0.1093713
	      0.0996322
	      0.0990536
	      0.0985616
	      0.0985614
	      0.0990531
	      0.0996314
	      0.1093701
	      0.1488124
	      0.1093714
	      0.0838326
	      0.0792860
	      0.0789838
	      0.0779750
	      0.0779747
	      0.0789832
	      0.0792853
	      0.0838322
	      0.1093704
	      0.0996321
	      0.0792859
	      0.0824295
	      0.0798716
	      0.0837204
	      0.0837208
	      0.0798719
	      0.0824284
	      0.0792853
	      0.0996310
	      0.0990533
	      0.0789835
	      0.0798712
	      0.0763154
	      0.0809562
	      0.0809564
	      0.0763155
	      0.0798702
	      0.0789833
	      0.0990520
	      0.0985612
	      0.0779746
	      0.0837200
	      0.0809563
	      0.0860964
	      0.0860965
	      0.0809566
	      0.0837193
	      0.0779739
	      0.0985598
	      0.0985609
	      0.0779743
	      0.0837204
	      0.0809565
	      0.0860966
	      0.0860967
	      0.0809568
	      0.0837198
	      0.0779736
	      0.0985595
	      0.0990525
	      0.0789828
	      0.0798715
	      0.0763155
	      0.0809567
	      0.0809569
	      0.0763156
	      0.0798705
	      0.0789826
	      0.0990512
	      0.0996308
	      0.0792849
	      0.0824278
	      0.0798697
	      0.0837190
	      0.0837193
	      0.0798700
	      0.0824268
	      0.0792843
	      0.0996296
	      0.1093695
	      0.0838322
	      0.0792850
	      0.0789829
	      0.0779735
	      0.0779733
	      0.0789822
	      0.0792843
	      0.0838318
	      0.1093685
	      0.1488118
	      0.1093697
	      0.0996304
	      0.0990515
	      0.0985593
	      0.0985591
	      0.0990509
	      0.0996295
	      0.1093685
	      0.1488095
	      0.1424429
	      0.1123850
	      0.1070398
	      0.1069018
	      0.1069688
	      0.1069686
	      0.1069012
	      0.1070390
	      0.1123841
	      0.1424415
	      0.1123852
	      0.0905563
	      0.0868301
	      0.0849310
	      0.0846341
	      0.0846338
	      0.0849304
	      0.0868294
	      0.0905563
	      0.1123846
	      0.1070400
	      0.0868305
	      0.0962017
	      0.0953519
	      0.1012412
	      0.1012412
	      0.0953515
	      0.0962011
	      0.0868309
	      0.1070389
	      0.1069018
	      0.0849311
	      0.0953517
	      0.0908703
	      0.0961583
	      0.0961579
	      0.0908690
	      0.0953504
	      0.0849317
	      0.1069005
	      0.1069686
	      0.0846341
	      0.1012406
	      0.0961580
	      0.1021512
	      0.1021508
	      0.0961567
	      0.1012397
	      0.0846339
	      0.1069673
	      0.1069683
	      0.0846337
	      0.1012406
	      0.0961573
	      0.1021505
	      0.1021501
	      0.0961561
	      0.1012397
	      0.0846335
	      0.1069670
	      0.1069008
	      0.0849302
	      0.0953509
	      0.0908682
	      0.0961562
	      0.0961558
	      0.0908669
	      0.0953496
	      0.0849308
	      0.1068996
	      0.1070385
	      0.0868293
	      0.0962007
	      0.0953498
	      0.1012392
	      0.1012392
	      0.0953494
	      0.0962001
	      0.0868297
	      0.1070374
	      0.1123835
	      0.0905563
	      0.0868308
	      0.0849315
	      0.0846338
	      0.0846335
	      0.0849309
	      0.0868301
	      0.0905564
	      0.1123829
	      0.1424413
	      0.1123840
	      0.1070383
	      0.1069001
	      0.1069670
	      0.1069668
	      0.1068996
	      0.1070376
	      0.1123831
	      0.1424399
	      0.1178664
	      0.0975044
	      0.0955736
	      0.0970664
	      0.0973678
	      0.0973677
	      0.0970661
	      0.0955732
	      0.0975039
	      0.1178659
	      0.0975048
	      0.0780852
	      0.0791144
	      0.0791329
	      0.0808955
	      0.0808955
	      0.0791324
	      0.0791137
	      0.0780856
	      0.0975051
	      0.0955741
	      0.0791145
	      0.0860593
	      0.0880213
	      0.0904771
	      0.0904763
	      0.0880216
	      0.0860596
	      0.0791138
	      0.0955742
	      0.0970668
	      0.0791330
	      0.0880210
	      0.0866773
	      0.0875427
	      0.0875415
	      0.0866772
	      0.0880213
	      0.0791315
	      0.0970668
	      0.0973681
	      0.0808953
	      0.0904770
	      0.0875429
	      0.0897208
	      0.0897198
	      0.0875430
	      0.0904778
	      0.0808935
	      0.0973681
	      0.0973678
	      0.0808953
	      0.0904761
	      0.0875413
	      0.0897194
	      0.0897183
	      0.0875415
	      0.0904769
	      0.0808935
	      0.0973679
	      0.0970661
	      0.0791321
	      0.0880214
	      0.0866773
	      0.0875428
	      0.0875416
	      0.0866772
	      0.0880217
	      0.0791306
	      0.0970661
	      0.0955731
	      0.0791134
	      0.0860590
	      0.0880212
	      0.0904776
	      0.0904768
	      0.0880214
	      0.0860594
	      0.0791127
	      0.0955732
	      0.0975038
	      0.0780857
	      0.0791135
	      0.0791312
	      0.0808933
	      0.0808933
	      0.0791307
	      0.0791127
	      0.0780861
	      0.0975041
	      0.1178664
	      0.0975050
	      0.0955741
	      0.0970668
	      0.0973683
	      0.0973682
	      0.0970665
	      0.0955737
	      0.0975045
	      0.1178660
	      0.1177155
	      0.0973416
	      0.0953725
	      0.0967868
	      0.0969974
	      0.0969973
	      0.0967865
	      0.0953721
	      0.0973412
	      0.1177150
	      0.0973420
	      0.0771206
	      0.0780011
	      0.0791017
	      0.0801519
	      0.0801519
	      0.0791013
	      0.0780006
	      0.0771206
	      0.0973424
	      0.0953730
	      0.0780013
	      0.0837423
	      0.0871248
	      0.0915190
	      0.0915187
	      0.0871250
	      0.0837422
	      0.0780015
	      0.0953729
	      0.0967872
	      0.0791018
	      0.0871245
	      0.0881473
	      0.0920103
	      0.0920098
	      0.0881471
	      0.0871241
	      0.0791017
	      0.0967868
	      0.0969977
	      0.0801520
	      0.0915188
	      0.0920104
	      0.0975599
	      0.0975595
	      0.0920104
	      0.0915189
	      0.0801516
	      0.0969973
	      0.0969974
	      0.0801519
	      0.0915185
	      0.0920097
	      0.0975593
	      0.0975590
	      0.0920097
	      0.0915186
	      0.0801515
	      0.0969970
	      0.0967864
	      0.0791013
	      0.0871247
	      0.0881470
	      0.0920103
	      0.0920098
	      0.0881468
	      0.0871244
	      0.0791011
	      0.0967860
	      0.0953719
	      0.0780004
	      0.0837416
	      0.0871239
	      0.0915187
	      0.0915184
	      0.0871241
	      0.0837415
	      0.0780006
	      0.0953718
	      0.0973410
	      0.0771209
	      0.0780013
	      0.0791017
	      0.0801516
	      0.0801516
	      0.0791013
	      0.0780008
	      0.0771209
	      0.0973415
	      0.1177155
	      0.0973422
	      0.0953727
	      0.0967868
	      0.0969974
	      0.0969972
	      0.0967864
	      0.0953723
	      0.0973418
	      0.1177150
	      0.1422552
	      0.1122383
	      0.1069387
	      0.1067000
	      0.1066192
	      0.1066189
	      0.1066994
	      0.1069381
	      0.1122375
	      0.1422538
	      0.1122385
	      0.0905189
	      0.0877168
	      0.0864690
	      0.0852827
	      0.0852823
	      0.0864683
	      0.0877163
	      0.0905188
	      0.1122381
	      0.1069389
	      0.0877171
	      0.0954437
	      0.0942344
	      0.1010671
	      0.1010675
	      0.0942340
	      0.0954427
	      0.0877171
	      0.1069380
	      0.1067001
	      0.0864691
	      0.0942342
	      0.0897588
	      0.0966908
	      0.0966910
	      0.0897575
	      0.0942324
	      0.0864693
	      0.1066990
	      0.1066191
	      0.0852826
	      0.1010665
	      0.0966905
	      0.1045015
	      0.1045016
	      0.0966893
	      0.1010651
	      0.0852823
	      0.1066179
	      0.1066186
	      0.0852822
	      0.1010669
	      0.0966906
	      0.1045015
	      0.1045016
	      0.0966893
	      0.1010655
	      0.0852818
	      0.1066175
	      0.1066990
	      0.0864681
	      0.0942333
	      0.0897568
	      0.0966889
	      0.0966890
	      0.0897554
	      0.0942315
	      0.0864683
	      0.1066979
	      0.1069376
	      0.0877161
	      0.0954421
	      0.0942317
	      0.1010645
	      0.1010649
	      0.0942313
	      0.0954411
	      0.0877161
	      0.1069367
	      0.1122369
	      0.0905187
	      0.0877169
	      0.0864691
	      0.0852821
	      0.0852818
	      0.0864684
	      0.0877163
	      0.0905185
	      0.1122364
	      0.1422536
	      0.1122375
	      0.1069375
	      0.1066986
	      0.1066176
	      0.1066174
	      0.1066980
	      0.1069369
	      0.1122367
	      0.1422522
	      0.1490286
	      0.1095846
	      0.0999692
	      0.0994118
	      0.0988625
	      0.0988623
	      0.0994112
	      0.0999684
	      0.1095835
	      0.1490262
	      0.1095846
	      0.0849325
	      0.0802841
	      0.0795042
	      0.0786983
	      0.0786981
	      0.0795034
	      0.0802835
	      0.0849326
	      0.1095832
	      0.0999691
	      0.0802841
	      0.0844717
	      0.0797451
	      0.0825306
	      0.0825307
	      0.0797455
	      0.0844719
	      0.0802833
	      0.0999676
	      0.0994115
	      0.0795039
	      0.0797448
	      0.0734531
	      0.0766403
	      0.0766402
	      0.0734533
	      0.0797448
	      0.0795031
	      0.0994100
	      0.0988621
	      0.0786978
	      0.0825305
	      0.0766404
	      0.0800707
	      0.0800706
	      0.0766407
	      0.0825309
	      0.0786966
	      0.0988606
	      0.0988618
	      0.0786976
	      0.0825305
	      0.0766402
	      0.0800705
	      0.0800704
	      0.0766406
	      0.0825309
	      0.0786964
	      0.0988602
	      0.0994106
	      0.0795029
	      0.0797453
	      0.0734534
	      0.0766408
	      0.0766407
	      0.0734536
	      0.0797454
	      0.0795021
	      0.0994091
	      0.0999678
	      0.0802831
	      0.0844716
	      0.0797446
	      0.0825307
	      0.0825308
	      0.0797450
	      0.0844718
	      0.0802824
	      0.0999663
	      0.1095827
	      0.0849324
	      0.0802830
	      0.0795026
	      0.0786961
	      0.0786959
	      0.0795018
	      0.0802823
	      0.0849325
	      0.1095813
	      0.1490254
	      0.1095824
	      0.0999670
	      0.0994094
	      0.0988601
	      0.0988598
	      0.0994088
	      0.0999662
	      0.1095813
	      0.1490230
	      0.0671685
	      0.0511410
	      0.0504432
	      0.0550382
	      0.0552779
	      0.0552779
	      0.0550381
	      0.0504430
	      0.0511409
	      0.0671681
	      0.0511412
	      0.0486686
	      0.0465875
	      0.0565375
	      0.0565497
	      0.0565493
	      0.0565369
	      0.0465874
	      0.0486684
	      0.0511409
	      0.0504432
	      0.0465873
	      0.0406866
	      0.0498847
	      0.0497972
	      0.0497967
	      0.0498837
	      0.0406864
	      0.0465872
	      0.0504427
	      0.0550381
	      0.0565373
	      0.0498848
	      0.0585600
	      0.0586076
	      0.0586069
	      0.0585589
	      0.0498846
	      0.0565371
	      0.0550371
	      0.0552778
	      0.0565496
	      0.0497972
	      0.0586075
	      0.0590062
	      0.0590055
	      0.0586063
	      0.0497971
	      0.0565494
	      0.0552768
	      0.0552778
	      0.0565490
	      0.0497965
	      0.0586065
	      0.0590052
	      0.0590046
	      0.0586053
	      0.0497963
	      0.0565488
	      0.0552768
	      0.0550379
	      0.0565365
	      0.0498835
	      0.0585584
	      0.0586059
	      0.0586052
	      0.0585572
	      0.0498833
	      0.0565363
	      0.0550370
	      0.0504428
	      0.0465871
	      0.0406862
	      0.0498844
	      0.0497969
	      0.0497963
	      0.0498834
	      0.0406861
	      0.0465870
	      0.0504423
	      0.0511409
	      0.0486684
	      0.0465869
	      0.0565367
	      0.0565491
	      0.0565487
	      0.0565362
	      0.0465868
	      0.0486682
	      0.0511407
	      0.0671684
	      0.0511409
	      0.0504425
	      0.0550370
	      0.0552767
	      0.0552767
	      0.0550368
	      0.0504424
	      0.0511409
	      0.0671679
	      0.7918040
	      0.4518548
	      0.4315594
	      0.4519411
	      0.4366437
	      0.4366413
	      0.4519378
	      0.4315572
	      0.4518476
	      0.7917809
	      0.4518504
	      0.1259915
	      0.1107838
	      0.1308650
	      0.1170574
	      0.1170561
	      0.1308644
	      0.1107857
	      0.1259907
	      0.4518354
	      0.4315533
	      0.1107830
	      0.1006872
	      0.1287584
	      0.1139538
	      0.1139518
	      0.1287571
	      0.1006895
	      0.1107828
	      0.4315369
	      0.4519349
	      0.1308647
	      0.1287592
	      0.1649964
	      0.1503661
	      0.1503638
	      0.1649948
	      0.1287614
	      0.1308643
	      0.4519170
	      0.4366371
	      0.1170574
	      0.1139548
	      0.1503661
	      0.1343136
	      0.1343115
	      0.1503648
	      0.1139573
	      0.1170571
	      0.4366190
	      0.4366340
	      0.1170554
	      0.1139518
	      0.1503628
	      0.1343105
	      0.1343084
	      0.1503614
	      0.1139543
	      0.1170551
	      0.4366159
	      0.4519311
	      0.1308638
	      0.1287573
	      0.1649940
	      0.1503637
	      0.1503615
	      0.1649924
	      0.1287595
	      0.1308634
	      0.4519132
	      0.4315514
	      0.1107855
	      0.1006903
	      0.1287616
	      0.1139573
	      0.1139553
	      0.1287603
	      0.1006926
	      0.1107854
	      0.4315350
	      0.4518413
	      0.1259899
	      0.1107827
	      0.1308637
	      0.1170564
	      0.1170551
	      0.1308631
	      0.1107846
	      0.1259891
	      0.4518263
	      0.7917714
	      0.4518291
	      0.4315311
	      0.4519103
	      0.4366117
	      0.4366093
	      0.4519070
	      0.4315288
	      0.4518219
	      0.7917484
