# vtk DataFile Version 3.0
test_file
ASCII
DATASET POLYDATA
POINTS 1000 float
   0.35000 	   -0.00000 	    0.00000
   0.35000 	   -0.00000 	    1.00000
   0.35000 	    0.00000 	    2.00000
   0.35000 	    0.00000 	    3.00000
   0.35000 	    0.00000 	    4.00000
   0.35000 	    0.00000 	    5.00000
   0.35000 	    0.00000 	    6.00000
   0.35000 	    0.00000 	    7.00000
   0.35000 	   -0.00000 	    8.00000
   0.35000 	    0.00000 	    9.00000
   0.35000 	    1.00000 	    0.00000
   0.35000 	    1.00000 	    1.00000
   0.35000 	    1.00000 	    2.00000
   0.35000 	    1.00000 	    3.00000
   0.35000 	    1.00000 	    4.00000
   0.35000 	    1.00000 	    5.00000
   0.35000 	    1.00000 	    6.00000
   0.35000 	    1.00000 	    7.00000
   0.35000 	    1.00000 	    8.00000
   0.35000 	    1.00000 	    9.00000
   0.35000 	    2.00000 	    0.00000
   0.35000 	    2.00000 	    1.00000
   0.35000 	    2.00000 	    2.00000
   0.35000 	    2.00000 	    3.00000
   0.35000 	    2.00000 	    4.00000
   0.35000 	    2.00000 	    5.00000
   0.35000 	    2.00000 	    6.00000
   0.35000 	    2.00000 	    7.00000
   0.35000 	    2.00000 	    8.00000
   0.35000 	    2.00000 	    9.00000
   0.35000 	    3.00000 	    0.00000
   0.35000 	    3.00000 	    1.00000
   0.35000 	    3.00000 	    2.00000
   0.35000 	    3.00000 	    3.00000
   0.35000 	    3.00000 	    4.00000
   0.35000 	    3.00000 	    5.00000
   0.35000 	    3.00000 	    6.00000
   0.35000 	    3.00000 	    7.00000
   0.35000 	    3.00000 	    8.00000
   0.35000 	    3.00000 	    9.00000
   0.35000 	    4.00000 	    0.00000
   0.35000 	    4.00000 	    1.00000
   0.35000 	    4.00000 	    2.00000
   0.35000 	    4.00000 	    3.00000
   0.35000 	    4.00000 	    4.00000
   0.35000 	    4.00000 	    5.00000
   0.35000 	    4.00000 	    6.00000
   0.35000 	    4.00000 	    7.00000
   0.35000 	    4.00000 	    8.00000
   0.35000 	    4.00000 	    9.00000
   0.35000 	    5.00000 	    0.00000
   0.35000 	    5.00000 	    1.00000
   0.35000 	    5.00000 	    2.00000
   0.35000 	    5.00000 	    3.00000
   0.35000 	    5.00000 	    4.00000
   0.35000 	    5.00000 	    5.00000
   0.35000 	    5.00000 	    6.00000
   0.35000 	    5.00000 	    7.00000
   0.35000 	    5.00000 	    8.00000
   0.35000 	    5.00000 	    9.00000
   0.35000 	    6.00000 	    0.00000
   0.35000 	    6.00000 	    1.00000
   0.35000 	    6.00000 	    2.00000
   0.35000 	    6.00000 	    3.00000
   0.35000 	    6.00000 	    4.00000
   0.35000 	    6.00000 	    5.00000
   0.35000 	    6.00000 	    6.00000
   0.35000 	    6.00000 	    7.00000
   0.35000 	    6.00000 	    8.00000
   0.35000 	    6.00000 	    9.00000
   0.35000 	    7.00000 	    0.00000
   0.35000 	    7.00000 	    1.00000
   0.35000 	    7.00000 	    2.00000
   0.35000 	    7.00000 	    3.00000
   0.35000 	    7.00000 	    4.00000
   0.35000 	    7.00000 	    5.00000
   0.35000 	    7.00000 	    6.00000
   0.35000 	    7.00000 	    7.00000
   0.35000 	    7.00000 	    8.00000
   0.35000 	    7.00000 	    9.00000
   0.35000 	    8.00000 	    0.00000
   0.35000 	    8.00000 	    1.00000
   0.35000 	    8.00000 	    2.00000
   0.35000 	    8.00000 	    3.00000
   0.35000 	    8.00000 	    4.00000
   0.35000 	    8.00000 	    5.00000
   0.35000 	    8.00000 	    6.00000
   0.35000 	    8.00000 	    7.00000
   0.35000 	    8.00000 	    8.00000
   0.35000 	    8.00000 	    9.00000
   0.35000 	    9.00000 	    0.00000
   0.35000 	    9.00000 	    1.00000
   0.35000 	    9.00000 	    2.00000
   0.35000 	    9.00000 	    3.00000
   0.35000 	    9.00000 	    4.00000
   0.35000 	    9.00000 	    5.00000
   0.35000 	    9.00000 	    6.00000
   0.35000 	    9.00000 	    7.00000
   0.35000 	    9.00000 	    8.00000
   0.35000 	    9.00000 	    9.00000
   1.34965 	   -0.06115 	   -0.06115
   1.34524 	   -0.06611 	    0.96512
   1.34294 	   -0.06683 	    1.98205
   1.34482 	   -0.06900 	    2.98541
   1.34362 	   -0.06890 	    3.99433
   1.34362 	   -0.06890 	    5.00567
   1.34482 	   -0.06899 	    6.01458
   1.34294 	   -0.06683 	    7.01795
   1.34524 	   -0.06611 	    8.03487
   1.34965 	   -0.06114 	    9.06115
   1.34524 	    0.96512 	   -0.06611
   1.34326 	    0.95225 	    0.95225
   1.33595 	    0.95569 	    1.97978
   1.33735 	    0.95376 	    2.97623
   1.33708 	    0.95583 	    3.99030
   1.33708 	    0.95583 	    5.00969
   1.33735 	    0.95376 	    6.02377
   1.33595 	    0.95569 	    7.02022
   1.34326 	    0.95225 	    8.04774
   1.34524 	    0.96513 	    9.06611
   1.34294 	    1.98205 	   -0.06683
   1.33595 	    1.97978 	    0.95569
   1.33453 	    1.98082 	    1.98082
   1.33403 	    1.98139 	    2.96995
   1.33574 	    1.98150 	    3.98841
   1.33574 	    1.98150 	    5.01159
   1.33403 	    1.98139 	    6.03005
   1.33453 	    1.98082 	    7.01918
   1.33595 	    1.97978 	    8.04430
   1.34294 	    1.98205 	    9.06683
   1.34482 	    2.98541 	   -0.06899
   1.33735 	    2.97623 	    0.95376
   1.33403 	    2.96995 	    1.98139
   1.33252 	    2.96972 	    2.96972
   1.33417 	    2.96904 	    3.98867
   1.33417 	    2.96904 	    5.01133
   1.33252 	    2.96972 	    6.03028
   1.33403 	    2.96995 	    7.01861
   1.33735 	    2.97623 	    8.04624
   1.34482 	    2.98541 	    9.06899
   1.34362 	    3.99433 	   -0.06890
   1.33708 	    3.99030 	    0.95583
   1.33574 	    3.98840 	    1.98150
   1.33417 	    3.98867 	    2.96905
   1.33576 	    3.98856 	    3.98856
   1.33576 	    3.98856 	    5.01143
   1.33417 	    3.98867 	    6.03095
   1.33574 	    3.98840 	    7.01850
   1.33708 	    3.99030 	    8.04417
   1.34362 	    3.99433 	    9.06889
   1.34362 	    5.00567 	   -0.06890
   1.33708 	    5.00969 	    0.95583
   1.33574 	    5.01159 	    1.98150
   1.33417 	    5.01132 	    2.96905
   1.33576 	    5.01143 	    3.98856
   1.33576 	    5.01143 	    5.01143
   1.33417 	    5.01132 	    6.03095
   1.33574 	    5.01159 	    7.01850
   1.33708 	    5.00969 	    8.04416
   1.34362 	    5.00567 	    9.06889
   1.34482 	    6.01458 	   -0.06899
   1.33735 	    6.02377 	    0.95376
   1.33403 	    6.03004 	    1.98139
   1.33252 	    6.03028 	    2.96972
   1.33417 	    6.03095 	    3.98867
   1.33417 	    6.03095 	    5.01133
   1.33252 	    6.03028 	    6.03028
   1.33403 	    6.03004 	    7.01861
   1.33735 	    6.02377 	    8.04624
   1.34482 	    6.01458 	    9.06899
   1.34294 	    7.01795 	   -0.06683
   1.33595 	    7.02021 	    0.95570
   1.33453 	    7.01918 	    1.98082
   1.33403 	    7.01861 	    2.96995
   1.33574 	    7.01850 	    3.98841
   1.33574 	    7.01850 	    5.01159
   1.33403 	    7.01861 	    6.03004
   1.33453 	    7.01918 	    7.01918
   1.33595 	    7.02021 	    8.04430
   1.34294 	    7.01795 	    9.06683
   1.34524 	    8.03487 	   -0.06611
   1.34326 	    8.04774 	    0.95226
   1.33595 	    8.04430 	    1.97978
   1.33735 	    8.04624 	    2.97623
   1.33708 	    8.04416 	    3.99030
   1.33708 	    8.04416 	    5.00969
   1.33735 	    8.04624 	    6.02377
   1.33595 	    8.04430 	    7.02021
   1.34326 	    8.04774 	    8.04774
   1.34524 	    8.03487 	    9.06611
   1.34965 	    9.06114 	   -0.06114
   1.34524 	    9.06611 	    0.96513
   1.34294 	    9.06683 	    1.98205
   1.34482 	    9.06899 	    2.98541
   1.34362 	    9.06889 	    3.99433
   1.34362 	    9.06889 	    5.00567
   1.34482 	    9.06899 	    6.01458
   1.34294 	    9.06683 	    7.01795
   1.34524 	    9.06611 	    8.03487
   1.34965 	    9.06114 	    9.06114
   2.27156 	   -0.08899 	   -0.08899
   2.28533 	   -0.09369 	    0.93296
   2.28917 	   -0.09796 	    1.95594
   2.28856 	   -0.10183 	    2.97286
   2.28716 	   -0.10386 	    3.99110
   2.28716 	   -0.10386 	    5.00889
   2.28856 	   -0.10183 	    6.02714
   2.28917 	   -0.09796 	    7.04406
   2.28533 	   -0.09369 	    8.06703
   2.27156 	   -0.08898 	    9.08899
   2.28533 	    0.93296 	   -0.09369
   2.32126 	    0.92550 	    0.92551
   2.33315 	    0.91820 	    1.96211
   2.33099 	    0.91504 	    2.97611
   2.32881 	    0.91212 	    3.99273
   2.32881 	    0.91212 	    5.00727
   2.33099 	    0.91504 	    6.02388
   2.33315 	    0.91820 	    7.03789
   2.32126 	    0.92551 	    8.07449
   2.28533 	    0.93296 	    9.09369
   2.28917 	    1.95594 	   -0.09796
   2.33315 	    1.96210 	    0.91820
   2.33596 	    1.95832 	    1.95833
   2.33081 	    1.95844 	    2.97881
   2.32582 	    1.95419 	    3.99370
   2.32581 	    1.95419 	    5.00630
   2.33081 	    1.95843 	    6.02118
   2.33596 	    1.95833 	    7.04167
   2.33315 	    1.96211 	    8.08180
   2.28917 	    1.95594 	    9.09795
   2.28857 	    2.97286 	   -0.10183
   2.33099 	    2.97611 	    0.91504
   2.33081 	    2.97881 	    1.95844
   2.32524 	    2.97767 	    2.97767
   2.31929 	    2.97659 	    3.99275
   2.31929 	    2.97659 	    5.00725
   2.32524 	    2.97767 	    6.02233
   2.33081 	    2.97881 	    7.04156
   2.33099 	    2.97611 	    8.08496
   2.28857 	    2.97286 	    9.10182
   2.28716 	    3.99110 	   -0.10386
   2.32881 	    3.99273 	    0.91212
   2.32582 	    3.99370 	    1.95419
   2.31929 	    3.99275 	    2.97659
   2.31248 	    3.99223 	    3.99223
   2.31248 	    3.99223 	    5.00777
   2.31928 	    3.99275 	    6.02341
   2.32582 	    3.99370 	    7.04580
   2.32881 	    3.99273 	    8.08788
   2.28716 	    3.99110 	    9.10385
   2.28716 	    5.00889 	   -0.10386
   2.32881 	    5.00727 	    0.91212
   2.32581 	    5.00630 	    1.95419
   2.31928 	    5.00725 	    2.97659
   2.31248 	    5.00777 	    3.99223
   2.31248 	    5.00777 	    5.00777
   2.31928 	    5.00725 	    6.02341
   2.32581 	    5.00630 	    7.04580
   2.32881 	    5.00727 	    8.08788
   2.28716 	    5.00889 	    9.10385
   2.28857 	    6.02714 	   -0.10183
   2.33099 	    6.02388 	    0.91504
   2.33081 	    6.02118 	    1.95844
   2.32524 	    6.02233 	    2.97767
   2.31928 	    6.02341 	    3.99275
   2.31928 	    6.02341 	    5.00725
   2.32524 	    6.02233 	    6.02233
   2.33081 	    6.02118 	    7.04156
[...]
POINT_DATA 1000
SCALARS C float
LOOKUP_TABLE default
	      0.8540714
	      0.4882625
	      0.4770527
	      0.4990947
	      0.4787372
	      0.4787349
	      0.4990911
	      0.4770504
	      0.4882552
	      0.8540481
	      0.4882579
	      0.1182048
	      0.1098788
	      0.1326130
	      0.1157924
	      0.1157912
	      0.1326121
	      0.1098810
	      0.1182039
	      0.4882432
	      0.4770464
	      0.1098781
	      0.1057906
	      0.1378940
	      0.1198587
	      0.1198572
	      0.1378924
	      0.1057927
	      0.1098780
	      0.4770302
	      0.4990886
	      0.1326130
	      0.1378948
	      0.1795538
	      0.1616030
	      0.1616014
	      0.1795520
	      0.1378967
	      0.1326127
	      0.4990712
	      0.4787306
	      0.1157924
	      0.1198596
	      0.1616028
	      0.1421590
	      0.1421575
	      0.1616011
	      0.1198616
	      0.1157924
	      0.4787134
	      0.4787275
	      0.1157906
	      0.1198573
	      0.1616003
	      0.1421566
	      0.1421551
	      0.1615985
	      0.1198593
	      0.1157906
	      0.4787103
	      0.4990843
	      0.1326115
	      0.1378926
	      0.1795510
	      0.1616000
	      0.1615984
	      0.1795491
	      0.1378944
	      0.1326112
	      0.4990669
	      0.4770445
	      0.1098810
	      0.1057937
	      0.1378968
	      0.1198616
	      0.1198601
	      0.1378953
	      0.1057958
	      0.1098809
	      0.4770283
	      0.4882489
	      0.1182033
	      0.1098780
	      0.1326121
	      0.1157919
	      0.1157907
	      0.1326112
	      0.1098802
	      0.1182024
	      0.4882342
	      0.8540388
	      0.4882368
	      0.4770243
	      0.4990644
	      0.4787060
	      0.4787037
	      0.4990607
	      0.4770220
	      0.4882296
	      0.8540155
	      0.0691395
	      0.0532370
	      0.0527963
	      0.0576608
	      0.0582115
	      0.0582115
	      0.0576607
	      0.0527963
	      0.0532369
	      0.0691391
	      0.0532372
	      0.0544411
	      0.0539708
	      0.0642112
	      0.0636881
	      0.0636879
	      0.0642113
	      0.0539702
	      0.0544411
	      0.0532369
	      0.0527963
	      0.0539707
	      0.0452771
	      0.0539601
	      0.0526483
	      0.0526478
	      0.0539601
	      0.0452764
	      0.0539708
	      0.0527958
	      0.0576606
	      0.0642109
	      0.0539599
	      0.0631942
	      0.0626191
	      0.0626185
	      0.0631940
	      0.0539589
	      0.0642108
	      0.0576597
	      0.0582114
	      0.0636879
	      0.0526482
	      0.0626192
	      0.0624554
	      0.0624548
	      0.0626190
	      0.0526473
	      0.0636879
	      0.0582106
	      0.0582115
	      0.0636877
	      0.0526474
	      0.0626182
	      0.0624544
	      0.0624538
	      0.0626180
	      0.0526465
	      0.0636876
	      0.0582106
	      0.0576606
	      0.0642110
	      0.0539599
	      0.0631939
	      0.0626187
	      0.0626181
	      0.0631937
	      0.0539589
	      0.0642109
	      0.0576596
	      0.0527961
	      0.0539698
	      0.0452759
	      0.0539587
	      0.0526470
	      0.0526464
	      0.0539586
	      0.0452751
	      0.0539699
	      0.0527956
	      0.0532369
	      0.0544412
	      0.0539704
	      0.0642105
	      0.0636876
	      0.0636875
	      0.0642106
	      0.0539697
	      0.0544412
	      0.0532367
	      0.0691393
	      0.0532369
	      0.0527956
	      0.0576595
	      0.0582105
	      0.0582105
	      0.0576595
	      0.0527956
	      0.0532369
	      0.0691389
	      0.1584243
	      0.1162165
	      0.1056594
	      0.1049061
	      0.1043550
	      0.1043548
	      0.1049057
	      0.1056586
	      0.1162152
	      0.1584219
	      0.1162165
	      0.0900770
	      0.0830345
	      0.0827446
	      0.0820696
	      0.0820694
	      0.0827442
	      0.0830338
	      0.0900763
	      0.1162154
	      0.1056593
	      0.0830344
	      0.0845514
	      0.0829734
	      0.0847175
	      0.0847176
	      0.0829736
	      0.0845501
	      0.0830335
	      0.1056579
	      0.1049058
	      0.0827441
	      0.0829729
	      0.0794657
	      0.0810642
	      0.0810639
	      0.0794663
	      0.0829723
	      0.0827431
	      0.1049042
	      0.1043545
	      0.0820691
	      0.0847171
	      0.0810643
	      0.0833574
	      0.0833572
	      0.0810650
	      0.0847165
	      0.0820675
	      0.1043529
	      0.1043543
	      0.0820688
	      0.0847172
	      0.0810641
	      0.0833571
	      0.0833569
	      0.0810647
	      0.0847167
	      0.0820671
	      0.1043527
	      0.1049052
	      0.0827436
	      0.0829732
	      0.0794664
	      0.0810652
	      0.0810649
	      0.0794670
	      0.0829726
	      0.0827426
	      0.1049035
	      0.1056579
	      0.0830332
	      0.0845493
	      0.0829719
	      0.0847161
	      0.0847163
	      0.0829721
	      0.0845481
	      0.0830324
	      0.1056566
	      0.1162145
	      0.0900763
	      0.0830330
	      0.0827426
	      0.0820669
	      0.0820667
	      0.0827421
	      0.0830322
	      0.0900756
	      0.1162134
	      0.1584213
	      0.1162147
	      0.1056572
	      0.1049036
	      0.1043524
	      0.1043523
	      0.1049032
	      0.1056565
	      0.1162135
	      0.1584189
	      0.1513837
	      0.1193064
	      0.1133402
	      0.1129771
	      0.1130050
	      0.1130049
	      0.1129767
	      0.1133394
	      0.1193053
	      0.1513822
	      0.1193066
	      0.0954117
	      0.0926849
	      0.0920219
	      0.0918928
	      0.0918926
	      0.0920215
	      0.0926842
	      0.0954119
	      0.1193058
	      0.1133404
	      0.0926852
	      0.1077623
	      0.1076803
	      0.1130081
	      0.1130079
	      0.1076800
	      0.1077617
	      0.0926861
	      0.1133390
	      0.1129771
	      0.0920221
	      0.1076800
	      0.1022099
	      0.1067891
	      0.1067884
	      0.1022090
	      0.1076794
	      0.0920228
	      0.1129756
	      0.1130049
	      0.0918930
	      0.1130077
	      0.1067889
	      0.1134427
	      0.1134422
	      0.1067881
	      0.1130070
	      0.0918931
	      0.1130034
	      0.1130046
	      0.0918927
	      0.1130074
	      0.1067880
	      0.1134419
	      0.1134413
	      0.1067871
	      0.1130068
	      0.0918927
	      0.1130031
	      0.1129763
	      0.0920214
	      0.1076794
	      0.1022085
	      0.1067877
	      0.1067869
	      0.1022076
	      0.1076788
	      0.0920221
	      0.1129747
	      0.1133389
	      0.0926840
	      0.1077613
	      0.1076788
	      0.1130065
	      0.1130063
	      0.1076785
	      0.1077606
	      0.0926849
	      0.1133375
	      0.1193047
	      0.0954120
	      0.0926859
	      0.0920228
	      0.0918931
	      0.0918929
	      0.0920223
	      0.0926852
	      0.0954121
	      0.1193039
	      0.1513819
	      0.1193051
	      0.1133384
	      0.1129751
	      0.1130030
	      0.1130029
	      0.1129747
	      0.1133377
	      0.1193041
	      0.1513804
	      0.1244468
	      0.1036815
	      0.1018445
	      0.1035020
	      0.1039340
	      0.1039339
	      0.1035016
	      0.1018441
	      0.1036811
	      0.1244464
	      0.1036819
	      0.0830611
	      0.0842268
	      0.0859401
	      0.0860814
	      0.0860813
	      0.0859395
	      0.0842262
	      0.0830615
	      0.1036826
	      0.1018451
	      0.0842271
	      0.0888694
	      0.0899159
	      0.0956155
	      0.0956158
	      0.0899161
	      0.0888685
	      0.0842269
	      0.1018453
	      0.1035025
	      0.0859404
	      0.0899153
	      0.0865011
	      0.0925343
	      0.0925345
	      0.0865011
	      0.0899142
	      0.0859400
	      0.1035026
	      0.1039343
	      0.0860814
	      0.0956150
	      0.0925343
	      0.1023311
	      0.1023316
	      0.0925344
	      0.0956138
	      0.0860810
	      0.1039345
	      0.1039340
	      0.0860814
	      0.0956154
	      0.0925345
	      0.1023318
	      0.1023324
	      0.0925347
	      0.0956143
	      0.0860810
	      0.1039342
	      0.1035017
	      0.0859396
	      0.0899156
	      0.0865010
	      0.0925344
	      0.0925346
	      0.0865010
	      0.0899145
	      0.0859392
	      0.1035018
	      0.1018440
	      0.0842261
	      0.0888677
	      0.0899137
	      0.0956134
	      0.0956137
	      0.0899139
	      0.0888668
	      0.0842259
	      0.1018442
	      0.1036809
	      0.0830616
	      0.0842268
	      0.0859400
	      0.0860811
	      0.0860810
	      0.0859395
	      0.0842263
	      0.0830620
	      0.1036816
	      0.1244470
	      0.1036824
	      0.1018452
	      0.1035026
	      0.1039347
	      0.1039345
	      0.1035023
	      0.1018447
	      0.1036820
	      0.1244467
	      0.1245070
	      0.1036736
	      0.1018622
	      0.1034976
	      0.1038386
	      0.1038385
	      0.1034972
	      0.1018618
	      0.1036732
	      0.1245066
	      0.1036740
	      0.0833215
	      0.0839604
	      0.0842557
	      0.0839283
	      0.0839281
	      0.0842551
	      0.0839599
	      0.0833219
	      0.1036747
	      0.1018627
	      0.0839606
	      0.0908056
	      0.0931242
	      0.0978789
	      0.0978789
	      0.0931244
	      0.0908050
	      0.0839607
	      0.1018630
	      0.1034981
	      0.0842559
	      0.0931236
	      0.0914961
	      0.0959588
	      0.0959586
	      0.0914960
	      0.0931230
	      0.0842557
	      0.1034982
	      0.1038390
	      0.0839284
	      0.0978784
	      0.0959588
	      0.1034246
	      0.1034247
	      0.0959589
	      0.0978779
	      0.0839278
	      0.1038392
	      0.1038387
	      0.0839282
	      0.0978785
	      0.0959586
	      0.1034247
	      0.1034247
	      0.0959586
	      0.0978780
	      0.0839276
	      0.1038389
	      0.1034973
	      0.0842551
	      0.0931239
	      0.0914959
	      0.0959588
	      0.0959586
	      0.0914959
	      0.0931233
	      0.0842549
	      0.1034974
	      0.1018617
	      0.0839598
	      0.0908043
	      0.0931225
	      0.0978775
	      0.0978775
	      0.0931227
	      0.0908037
	      0.0839599
	      0.1018620
	      0.1036731
	      0.0833221
	      0.0839606
	      0.0842557
	      0.0839278
	      0.0839276
	      0.0842551
	      0.0839601
	      0.0833225
	      0.1036738
	      0.1245072
	      0.1036746
	      0.1018629
	      0.1034983
	      0.1038394
	      0.1038393
	      0.1034980
	      0.1018625
	      0.1036742
	      0.1245069
	      0.1516076
	      0.1195112
	      0.1135989
	      0.1132381
	      0.1132148
	      0.1132146
	      0.1132376
	      0.1135982
	      0.1195103
	      0.1516061
	      0.1195114
	      0.0954833
	      0.0923225
	      0.0912126
	      0.0911521
	      0.0911517
	      0.0912121
	      0.0923219
	      0.0954830
	      0.1195108
	      0.1135991
	      0.0923226
	      0.1073815
	      0.1080137
	      0.1129400
	      0.1129399
	      0.1080132
	      0.1073809
	      0.0923227
	      0.1135977
	      0.1132381
	      0.0912127
	      0.1080135
	      0.1035570
	      0.1068559
	      0.1068551
	      0.1035557
	      0.1080128
	      0.0912127
	      0.1132365
	      0.1132146
	      0.0911521
	      0.1129396
	      0.1068556
	      0.1110094
	      0.1110087
	      0.1068544
	      0.1129392
	      0.0911511
	      0.1132130
	      0.1132142
	      0.0911515
	      0.1129394
	      0.1068546
	      0.1110084
	      0.1110077
	      0.1068534
	      0.1129390
	      0.0911506
	      0.1132126
	      0.1132372
	      0.0912118
	      0.1080126
	      0.1035551
	      0.1068539
	      0.1068532
	      0.1035538
	      0.1080120
	      0.0912118
	      0.1132356
	      0.1135977
	      0.0923216
	      0.1073804
	      0.1080123
	      0.1129387
	      0.1129386
	      0.1080118
	      0.1073798
	      0.0923216
	      0.1135963
	      0.1195096
	      0.0954830
	      0.0923223
	      0.0912124
	      0.0911509
	      0.0911506
	      0.0912119
	      0.0923218
	      0.0954827
	      0.1195090
	      0.1516059
	      0.1195101
	      0.1135972
	      0.1132360
	      0.1132126
	      0.1132125
	      0.1132356
	      0.1135965
	      0.1195092
	      0.1516044
	      0.1589934
	      0.1166936
	      0.1061437
	      0.1054168
	      0.1049342
	      0.1049340
	      0.1054163
	      0.1061429
	      0.1166923
	      0.1589909
	      0.1166936
	      0.0900276
	      0.0835885
	      0.0843677
	      0.0840959
	      0.0840957
	      0.0843672
	      0.0835880
	      0.0900271
	      0.1166921
	      0.1061435
	      0.0835886
	      0.0829322
	      0.0805278
	      0.0829311
	      0.0829316
	      0.0805281
	      0.0829320
	      0.0835885
	      0.1061415
	      0.1054164
	      0.0843675
	      0.0805275
	      0.0760605
	      0.0780853
	      0.0780854
	      0.0760608
	      0.0805275
	      0.0843676
	      0.1054141
	      0.1049336
	      0.0840956
	      0.0829308
	      0.0780853
	      0.0802564
	      0.0802565
	      0.0780857
	      0.0829312
	      0.0840953
	      0.1049313
	      0.1049334
	      0.0840954
	      0.0829314
	      0.0780856
	      0.0802566
	      0.0802567
	      0.0780860
	      0.0829318
	      0.0840951
	      0.1049311
	      0.1054156
	      0.0843669
	      0.0805279
	      0.0760610
	      0.0780859
	      0.0780861
	      0.0760613
	      0.0805280
	      0.0843670
	      0.1054133
	      0.1061422
	      0.0835877
	      0.0829318
	      0.0805273
	      0.0829311
	      0.0829315
	      0.0805276
	      0.0829316
	      0.0835876
	      0.1061401
	      0.1166915
	      0.0900270
	      0.0835882
	      0.0843673
	      0.0840950
	      0.0840948
	      0.0843667
	      0.0835877
	      0.0900266
	      0.1166900
	      0.1589902
	      0.1166913
	      0.1061408
	      0.1054134
	      0.1049307
	      0.1049305
	      0.1054129
	      0.1061400
	      0.1166901
	      0.1589878
	      0.0700634
	      0.0538004
	      0.0533252
	      0.0582073
	      0.0587120
	      0.0587120
	      0.0582072
	      0.0533251
	      0.0538004
	      0.0700630
	      0.0538006
	      0.0544950
	      0.0540414
	      0.0641910
	      0.0632833
	      0.0632830
	      0.0641904
	      0.0540412
	      0.0544949
	      0.0538005
	      0.0533253
	      0.0540412
	      0.0463287
	      0.0552459
	      0.0532825
	      0.0532817
	      0.0552449
	      0.0463283
	      0.0540411
	      0.0533251
	      0.0582073
	      0.0641907
	      0.0552460
	      0.0660432
	      0.0653331
	      0.0653323
	      0.0660420
	      0.0552453
	      0.0641902
	      0.0582066
	      0.0587120
	      0.0632831
	      0.0532824
	      0.0653330
	      0.0654893
	      0.0654886
	      0.0653318
	      0.0532818
	      0.0632825
	      0.0587114
	      0.0587120
	      0.0632827
	      0.0532814
	      0.0653318
	      0.0654882
	      0.0654874
	      0.0653306
	      0.0532807
	      0.0632821
	      0.0587114
	      0.0582071
	      0.0641899
	      0.0552444
	      0.0660414
	      0.0653313
	      0.0653305
	      0.0660402
	      0.0552438
	      0.0641894
	      0.0582065
	      0.0533250
	      0.0540408
	      0.0463279
	      0.0552449
	      0.0532814
	      0.0532807
	      0.0552438
	      0.0463275
	      0.0540406
	      0.0533248
	      0.0538004
	      0.0544949
	      0.0540407
	      0.0641897
	      0.0632821
	      0.0632818
	      0.0641891
	      0.0540404
	      0.0544948
	      0.0538003
	      0.0700633
	      0.0538005
	      0.0533250
	      0.0582066
	      0.0587114
	      0.0587114
	      0.0582065
	      0.0533249
	      0.0538005
	      0.0700629
	      0.8536038
	      0.4871590
	      0.4739801
	      0.4964608
	      0.4762481
	      0.4762460
	      0.4964573
	      0.4739772
	      0.4871517
	      0.8535803
	      0.4871545
	      0.1218629
	      0.1116873
	      0.1342503
	      0.1170700
	      0.1170693
	      0.1342499
	      0.1116888
	      0.1218625
	      0.4871396
	      0.4739739
	      0.1116866
	      0.1053950
	      0.1370723
	      0.1188518
	      0.1188506
	      0.1370712
	      0.1053964
	      0.1116868
	      0.4739576
	      0.4964545
	      0.1342501
	      0.1370730
	      0.1783372
	      0.1604944
	      0.1604932
	      0.1783359
	      0.1370742
	      0.1342499
	      0.4964369
	      0.4762414
	      0.1170700
	      0.1188525
	      0.1604944
	      0.1413557
	      0.1413546
	      0.1604932
	      0.1188540
	      0.1170700
	      0.4762238
	      0.4762386
	      0.1170688
	      0.1188507
	      0.1604923
	      0.1413538
	      0.1413527
	      0.1604911
	      0.1188521
	      0.1170689
	      0.4762211
	      0.4964504
	      0.1342495
	      0.1370713
	      0.1783350
	      0.1604923
	      0.1604910
	      0.1783337
	      0.1370725
	      0.1342493
	      0.4964328
	      0.4739712
	      0.1116887
	      0.1053972
	      0.1370743
	      0.1188540
	      0.1188528
	      0.1370732
	      0.1053987
	      0.1116889
	      0.4739549
	      0.4871453
	      0.1218621
	      0.1116867
	      0.1342495
	      0.1170696
	      0.1170689
	      0.1342491
	      0.1116882
	      0.1218617
	      0.4871305
	      0.8535707
	      0.4871333
	      0.4739515
	      0.4964300
	      0.4762164
	      0.4762143
	      0.4964265
	      0.4739486
	      0.4871260
	      0.8535472
