# vtk DataFile Version 3.0
test_file
ASCII
DATASET POLYDATA
POINTS 1000 float
   1.05000 	   -0.00000 	    0.00000
   1.05000 	   -0.00000 	    1.00000
   1.05000 	    0.00000 	    2.00000
   1.05000 	    0.00000 	    3.00000
   1.05000 	    0.00000 	    4.00000
   1.05000 	    0.00000 	    5.00000
   1.05000 	    0.00000 	    6.00000
   1.05000 	    0.00000 	    7.00000
   1.05000 	   -0.00000 	    8.00000
   1.05000 	    0.00000 	    9.00000
   1.05000 	    1.00000 	    0.00000
   1.05000 	    1.00000 	    1.00000
   1.05000 	    1.00000 	    2.00000
   1.05000 	    1.00000 	    3.00000
   1.05000 	    1.00000 	    4.00000
   1.05000 	    1.00000 	    5.00000
   1.05000 	    1.00000 	    6.00000
   1.05000 	    1.00000 	    7.00000
   1.05000 	    1.00000 	    8.00000
   1.05000 	    1.00000 	    9.00000
   1.05000 	    2.00000 	    0.00000
   1.05000 	    2.00000 	    1.00000
   1.05000 	    2.00000 	    2.00000
   1.05000 	    2.00000 	    3.00000
   1.05000 	    2.00000 	    4.00000
   1.05000 	    2.00000 	    5.00000
   1.05000 	    2.00000 	    6.00000
   1.05000 	    2.00000 	    7.00000
   1.05000 	    2.00000 	    8.00000
   1.05000 	    2.00000 	    9.00000
   1.05000 	    3.00000 	    0.00000
   1.05000 	    3.00000 	    1.00000
   1.05000 	    3.00000 	    2.00000
   1.05000 	    3.00000 	    3.00000
   1.05000 	    3.00000 	    4.00000
   1.05000 	    3.00000 	    5.00000
   1.05000 	    3.00000 	    6.00000
   1.05000 	    3.00000 	    7.00000
   1.05000 	    3.00000 	    8.00000
   1.05000 	    3.00000 	    9.00000
   1.05000 	    4.00000 	    0.00000
   1.05000 	    4.00000 	    1.00000
   1.05000 	    4.00000 	    2.00000
   1.05000 	    4.00000 	    3.00000
   1.05000 	    4.00000 	    4.00000
   1.05000 	    4.00000 	    5.00000
   1.05000 	    4.00000 	    6.00000
   1.05000 	    4.00000 	    7.00000
   1.05000 	    4.00000 	    8.00000
   1.05000 	    4.00000 	    9.00000
   1.05000 	    5.00000 	    0.00000
   1.05000 	    5.00000 	    1.00000
   1.05000 	    5.00000 	    2.00000
   1.05000 	    5.00000 	    3.00000
   1.05000 	    5.00000 	    4.00000
   1.05000 	    5.00000 	    5.00000
   1.05000 	    5.00000 	    6.00000
   1.05000 	    5.00000 	    7.00000
   1.05000 	    5.00000 	    8.00000
   1.05000 	    5.00000 	    9.00000
   1.05000 	    6.00000 	    0.00000
   1.05000 	    6.00000 	    1.00000
   1.05000 	    6.00000 	    2.00000
   1.05000 	    6.00000 	    3.00000
   1.05000 	    6.00000 	    4.00000
   1.05000 	    6.00000 	    5.00000
   1.05000 	    6.00000 	    6.00000
   1.05000 	    6.00000 	    7.00000
   1.05000 	    6.00000 	    8.00000
   1.05000 	    6.00000 	    9.00000
   1.05000 	    7.00000 	    0.00000
   1.05000 	    7.00000 	    1.00000
   1.05000 	    7.00000 	    2.00000
   1.05000 	    7.00000 	    3.00000
   1.05000 	    7.00000 	    4.00000
   1.05000 	    7.00000 	    5.00000
   1.05000 	    7.00000 	    6.00000
   1.05000 	    7.00000 	    7.00000
   1.05000 	    7.00000 	    8.00000
   1.05000 	    7.00000 	    9.00000
   1.05000 	    8.00000 	    0.00000
   1.05000 	    8.00000 	    1.00000
   1.05000 	    8.00000 	    2.00000
   1.05000 	    8.00000 	    3.00000
   1.05000 	    8.00000 	    4.00000
   1.05000 	    8.00000 	    5.00000
   1.05000 	    8.00000 	    6.00000
   1.05000 	    8.00000 	    7.00000
   1.05000 	    8.00000 	    8.00000
   1.05000 	    8.00000 	    9.00000
   1.05000 	    9.00000 	    0.00000
   1.05000 	    9.00000 	    1.00000
   1.05000 	    9.00000 	    2.00000
   1.05000 	    9.00000 	    3.00000
   1.05000 	    9.00000 	    4.00000
   1.05000 	    9.00000 	    5.00000
   1.05000 	    9.00000 	    6.00000
   1.05000 	    9.00000 	    7.00000
   1.05000 	    9.00000 	    8.00000
   1.05000 	    9.00000 	    9.00000
   2.06886 	   -0.20190 	   -0.20190
   2.05528 	   -0.21787 	    0.89459
   2.05359 	   -0.21758 	    1.94250
   2.06132 	   -0.22397 	    2.95444
   2.05564 	   -0.22315 	    3.98297
   2.05564 	   -0.22315 	    5.01703
   2.06132 	   -0.22397 	    6.04555
   2.05359 	   -0.21758 	    7.05749
   2.05528 	   -0.21787 	    8.10541
   2.06886 	   -0.20189 	    9.20189
   2.05528 	    0.89459 	   -0.21787
   2.01781 	    0.85919 	    0.85920
   2.00667 	    0.87272 	    1.92476
   2.01014 	    0.86819 	    2.93090
   2.00841 	    0.87242 	    3.97359
   2.00841 	    0.87242 	    5.02640
   2.01014 	    0.86819 	    6.06909
   2.00667 	    0.87272 	    7.07523
   2.01781 	    0.85920 	    8.14080
   2.05528 	    0.89459 	    9.21787
   2.05359 	    1.94250 	   -0.21758
   2.00667 	    1.92475 	    0.87272
   2.01545 	    1.92907 	    1.92908
   2.01486 	    1.92933 	    2.91913
   2.01708 	    1.92998 	    3.96884
   2.01708 	    1.92998 	    5.03115
   2.01486 	    1.92933 	    6.08086
   2.01545 	    1.92908 	    7.07092
   2.00667 	    1.92476 	    8.12727
   2.05359 	    1.94250 	    9.21757
   2.06132 	    2.95444 	   -0.22396
   2.01014 	    2.93089 	    0.86819
   2.01486 	    2.91913 	    1.92933
   2.01159 	    2.91726 	    2.91726
   2.01376 	    2.91650 	    3.96846
   2.01376 	    2.91650 	    5.03153
   2.01159 	    2.91726 	    6.08273
   2.01486 	    2.91913 	    7.07066
   2.01014 	    2.93089 	    8.13180
   2.06132 	    2.95444 	    9.22396
   2.05564 	    3.98296 	   -0.22314
   2.00841 	    3.97359 	    0.87242
   2.01708 	    3.96884 	    1.92998
   2.01376 	    3.96845 	    2.91651
   2.01570 	    3.96842 	    3.96842
   2.01570 	    3.96842 	    5.03157
   2.01376 	    3.96845 	    6.08348
   2.01708 	    3.96884 	    7.07001
   2.00841 	    3.97359 	    8.12757
   2.05565 	    3.98296 	    9.22314
   2.05564 	    5.01703 	   -0.22314
   2.00841 	    5.02639 	    0.87242
   2.01708 	    5.03114 	    1.92998
   2.01376 	    5.03153 	    2.91651
   2.01570 	    5.03156 	    3.96842
   2.01570 	    5.03156 	    5.03157
   2.01376 	    5.03153 	    6.08348
   2.01708 	    5.03114 	    7.07001
   2.00841 	    5.02639 	    8.12757
   2.05564 	    5.01703 	    9.22314
   2.06132 	    6.04555 	   -0.22396
   2.01014 	    6.06909 	    0.86819
   2.01486 	    6.08086 	    1.92933
   2.01159 	    6.08273 	    2.91726
   2.01376 	    6.08348 	    3.96846
   2.01376 	    6.08348 	    5.03153
   2.01159 	    6.08273 	    6.08273
   2.01486 	    6.08085 	    7.07066
   2.01014 	    6.06909 	    8.13180
   2.06132 	    6.04555 	    9.22395
   2.05359 	    7.05749 	   -0.21758
   2.00667 	    7.07523 	    0.87272
   2.01545 	    7.07091 	    1.92908
   2.01486 	    7.07066 	    2.91913
   2.01708 	    7.07001 	    3.96884
   2.01708 	    7.07001 	    5.03114
   2.01486 	    7.07066 	    6.08086
   2.01545 	    7.07091 	    7.07091
   2.00667 	    7.07523 	    8.12727
   2.05359 	    7.05749 	    9.21757
   2.05528 	    8.10541 	   -0.21787
   2.01781 	    8.14079 	    0.85920
   2.00667 	    8.12727 	    1.92476
   2.01014 	    8.13180 	    2.93090
   2.00841 	    8.12757 	    3.97359
   2.00841 	    8.12757 	    5.02640
   2.01014 	    8.13180 	    6.06909
   2.00667 	    8.12727 	    7.07523
   2.01781 	    8.14079 	    8.14079
   2.05528 	    8.10540 	    9.21786
   2.06886 	    9.20189 	   -0.20189
   2.05528 	    9.21786 	    0.89459
   2.05359 	    9.21757 	    1.94251
   2.06132 	    9.22395 	    2.95444
   2.05565 	    9.22313 	    3.98297
   2.05564 	    9.22313 	    5.01703
   2.06132 	    9.22395 	    6.04555
   2.05359 	    9.21757 	    7.05749
   2.05528 	    9.21786 	    8.10540
   2.06886 	    9.20188 	    9.20188
   2.81084 	   -0.28876 	   -0.28876
   2.85562 	   -0.30384 	    0.78618
   2.87086 	   -0.31418 	    1.85872
   2.87126 	   -0.32449 	    2.91345
   2.86677 	   -0.33053 	    3.97168
   2.86677 	   -0.33053 	    5.02831
   2.87126 	   -0.32448 	    6.08654
   2.87086 	   -0.31418 	    7.14127
   2.85562 	   -0.30384 	    8.21381
   2.81084 	   -0.28875 	    9.28875
   2.85562 	    0.78618 	   -0.30384
   2.94733 	    0.76111 	    0.76111
   2.97863 	    0.74888 	    1.86623
   2.97857 	    0.74028 	    2.92037
   2.97250 	    0.73039 	    3.97453
   2.97250 	    0.73039 	    5.02546
   2.97857 	    0.74028 	    6.07962
   2.97863 	    0.74888 	    7.13376
   2.94733 	    0.76111 	    8.23888
   2.85562 	    0.78619 	    9.30383
   2.87086 	    1.85872 	   -0.31418
   2.97863 	    1.86623 	    0.74888
   2.99698 	    1.86963 	    1.86963
   2.98878 	    1.86597 	    2.92029
   2.97402 	    1.85454 	    3.97381
   2.97402 	    1.85454 	    5.02618
   2.98877 	    1.86597 	    6.07970
   2.99698 	    1.86963 	    7.13036
   2.97864 	    1.86623 	    8.25110
   2.87086 	    1.85872 	    9.31417
   2.87126 	    2.91345 	   -0.32448
   2.97857 	    2.92037 	    0.74029
   2.98877 	    2.92029 	    1.86597
   2.97763 	    2.91805 	    2.91806
   2.96202 	    2.91338 	    3.97218
   2.96202 	    2.91338 	    5.02781
   2.97763 	    2.91805 	    6.08194
   2.98877 	    2.92029 	    7.13402
   2.97857 	    2.92037 	    8.25970
   2.87127 	    2.91345 	    9.32447
   2.86677 	    3.97168 	   -0.33053
   2.97250 	    3.97453 	    0.73040
   2.97402 	    3.97381 	    1.85454
   2.96202 	    3.97218 	    2.91338
   2.94362 	    3.97059 	    3.97059
   2.94362 	    3.97059 	    5.02940
   2.96202 	    3.97218 	    6.08661
   2.97402 	    3.97381 	    7.14545
   2.97251 	    3.97453 	    8.26959
   2.86677 	    3.97168 	    9.33052
   2.86677 	    5.02830 	   -0.33053
   2.97250 	    5.02545 	    0.73040
   2.97402 	    5.02617 	    1.85454
   2.96202 	    5.02780 	    2.91338
   2.94362 	    5.02939 	    3.97059
   2.94362 	    5.02939 	    5.02940
   2.96202 	    5.02780 	    6.08661
   2.97402 	    5.02617 	    7.14545
   2.97251 	    5.02545 	    8.26959
   2.86677 	    5.02830 	    9.33051
   2.87126 	    6.08654 	   -0.32448
   2.97857 	    6.07962 	    0.74029
   2.98877 	    6.07970 	    1.86597
   2.97763 	    6.08193 	    2.91806
   2.96202 	    6.08660 	    3.97218
   2.96202 	    6.08660 	    5.02781
   2.97763 	    6.08193 	    6.08194
   2.98877 	    6.07970 	    7.13402
[...]
POINT_DATA 1000
SCALARS C float
LOOKUP_TABLE default
	      1.4748719
	      0.8299255
	      0.8413581
	      0.8763141
	      0.8313943
	      0.8313904
	      0.8763080
	      0.8413571
	      0.8299186
	      1.4748399
	      0.8299181
	      0.1148613
	      0.1281306
	      0.1799611
	      0.1419701
	      0.1419676
	      0.1799585
	      0.1281357
	      0.1148628
	      0.8298979
	      0.8413487
	      0.1281303
	      0.1459840
	      0.2207452
	      0.1777376
	      0.1777346
	      0.2207415
	      0.1459894
	      0.1281337
	      0.8413243
	      0.8763055
	      0.1799625
	      0.2207474
	      0.3151880
	      0.2692051
	      0.2692015
	      0.3151832
	      0.2207523
	      0.1799656
	      0.8762792
	      0.8313848
	      0.1419711
	      0.1777396
	      0.2692047
	      0.2177552
	      0.2177515
	      0.2692001
	      0.1777448
	      0.1419748
	      0.8313590
	      0.8313801
	      0.1419676
	      0.1777350
	      0.2691992
	      0.2177495
	      0.2177459
	      0.2691945
	      0.1777403
	      0.1419713
	      0.8313543
	      0.8762984
	      0.1799586
	      0.2207421
	      0.3151809
	      0.2691977
	      0.2691941
	      0.3151761
	      0.2207470
	      0.1799618
	      0.8762721
	      0.8413488
	      0.1281371
	      0.1459921
	      0.2207529
	      0.1777453
	      0.1777423
	      0.2207493
	      0.1459975
	      0.1281405
	      0.8413243
	      0.8299099
	      0.1148629
	      0.1281351
	      0.1799658
	      0.1419748
	      0.1419723
	      0.1799632
	      0.1281402
	      0.1148643
	      0.8298897
	      1.4748290
	      0.8298892
	      0.8413159
	      0.8762697
	      0.8313487
	      0.8313449
	      0.8762635
	      0.8413150
	      0.8298824
	      1.4747970
	      0.1160178
	      0.0888517
	      0.0890093
	      0.0975475
	      0.0981703
	      0.0981703
	      0.0975474
	      0.0890090
	      0.0888510
	      0.1160171
	      0.0888519
	      0.0986666
	      0.0999139
	      0.1168438
	      0.1160714
	      0.1160712
	      0.1168440
	      0.0999132
	      0.0986659
	      0.0888505
	      0.0890090
	      0.0999135
	      0.0817919
	      0.0977692
	      0.0946177
	      0.0946175
	      0.0977701
	      0.0817909
	      0.0999129
	      0.0890073
	      0.0975469
	      0.1168431
	      0.0977688
	      0.1156160
	      0.1129074
	      0.1129072
	      0.1156170
	      0.0977677
	      0.1168423
	      0.0975446
	      0.0981699
	      0.1160709
	      0.0946176
	      0.1129076
	      0.1099768
	      0.1099765
	      0.1129085
	      0.0946165
	      0.1160700
	      0.0981676
	      0.0981698
	      0.1160706
	      0.0946173
	      0.1129072
	      0.1099762
	      0.1099760
	      0.1129081
	      0.0946162
	      0.1160697
	      0.0981676
	      0.0975469
	      0.1168435
	      0.0977699
	      0.1156172
	      0.1129085
	      0.1129083
	      0.1156181
	      0.0977688
	      0.1168427
	      0.0975446
	      0.0890085
	      0.0999125
	      0.0817903
	      0.0977675
	      0.0946162
	      0.0946160
	      0.0977685
	      0.0817893
	      0.0999118
	      0.0890067
	      0.0888507
	      0.0986657
	      0.0999121
	      0.1168417
	      0.1160694
	      0.1160692
	      0.1168420
	      0.0999114
	      0.0986651
	      0.0888493
	      0.1160173
	      0.0888502
	      0.0890067
	      0.0975441
	      0.0981672
	      0.0981672
	      0.0975440
	      0.0890064
	      0.0888495
	      0.1160165
	      0.2519132
	      0.1866366
	      0.1697672
	      0.1680549
	      0.1667429
	      0.1667428
	      0.1680545
	      0.1697664
	      0.1866350
	      0.2519111
	      0.1866367
	      0.1546828
	      0.1471133
	      0.1467105
	      0.1458367
	      0.1458366
	      0.1467101
	      0.1471124
	      0.1546812
	      0.1866366
	      0.1697673
	      0.1471128
	      0.1348321
	      0.1271495
	      0.1358338
	      0.1358319
	      0.1271499
	      0.1348309
	      0.1471104
	      0.1697672
	      0.1680548
	      0.1467095
	      0.1271483
	      0.1177920
	      0.1275636
	      0.1275627
	      0.1177934
	      0.1271465
	      0.1467067
	      0.1680545
	      0.1667428
	      0.1458358
	      0.1358334
	      0.1275644
	      0.1375117
	      0.1375096
	      0.1275650
	      0.1358329
	      0.1458324
	      0.1667425
	      0.1667426
	      0.1458356
	      0.1358309
	      0.1275625
	      0.1375090
	      0.1375069
	      0.1275632
	      0.1358304
	      0.1458322
	      0.1667423
	      0.1680542
	      0.1467089
	      0.1271496
	      0.1177936
	      0.1275648
	      0.1275639
	      0.1177950
	      0.1271478
	      0.1467060
	      0.1680539
	      0.1697659
	      0.1471112
	      0.1348297
	      0.1271462
	      0.1358319
	      0.1358300
	      0.1271466
	      0.1348286
	      0.1471088
	      0.1697658
	      0.1866345
	      0.1546809
	      0.1471093
	      0.1467055
	      0.1458314
	      0.1458312
	      0.1467051
	      0.1471083
	      0.1546793
	      0.1866344
	      0.2519110
	      0.1866361
	      0.1697667
	      0.1680542
	      0.1667424
	      0.1667423
	      0.1680539
	      0.1697659
	      0.1866345
	      0.2519089
	      0.2350953
	      0.1886892
	      0.1798894
	      0.1792052
	      0.1791544
	      0.1791542
	      0.1792049
	      0.1798886
	      0.1886879
	      0.2350940
	      0.1886897
	      0.1562939
	      0.1519660
	      0.1488006
	      0.1476474
	      0.1476471
	      0.1488003
	      0.1519653
	      0.1562944
	      0.1886897
	      0.1798899
	      0.1519665
	      0.1935081
	      0.1853691
	      0.2070121
	      0.2070125
	      0.1853700
	      0.1935050
	      0.1519674
	      0.1798893
	      0.1792056
	      0.1488009
	      0.1853678
	      0.1591561
	      0.1804354
	      0.1804359
	      0.1591570
	      0.1853643
	      0.1488016
	      0.1792049
	      0.1791546
	      0.1476477
	      0.2070110
	      0.1804357
	      0.2051870
	      0.2051869
	      0.1804361
	      0.2070083
	      0.1476482
	      0.1791538
	      0.1791543
	      0.1476473
	      0.2070113
	      0.1804358
	      0.2051869
	      0.2051868
	      0.1804363
	      0.2070085
	      0.1476478
	      0.1791535
	      0.1792047
	      0.1488002
	      0.1853692
	      0.1591570
	      0.1804360
	      0.1804365
	      0.1591579
	      0.1853657
	      0.1488009
	      0.1792041
	      0.1798882
	      0.1519653
	      0.1935035
	      0.1853634
	      0.2070070
	      0.2070075
	      0.1853644
	      0.1935004
	      0.1519661
	      0.1798877
	      0.1886874
	      0.1562947
	      0.1519673
	      0.1488015
	      0.1476483
	      0.1476481
	      0.1488012
	      0.1519666
	      0.1562951
	      0.1886874
	      0.2350939
	      0.1886892
	      0.1798890
	      0.1792048
	      0.1791539
	      0.1791537
	      0.1792044
	      0.1798882
	      0.1886879
	      0.2350926
	      0.1846384
	      0.1612439
	      0.1600284
	      0.1631608
	      0.1639401
	      0.1639400
	      0.1631604
	      0.1600279
	      0.1612433
	      0.1846384
	      0.1612447
	      0.1311719
	      0.1317604
	      0.1314413
	      0.1300325
	      0.1300321
	      0.1314406
	      0.1317597
	      0.1311731
	      0.1612459
	      0.1600294
	      0.1317611
	      0.1754262
	      0.1703047
	      0.1858528
	      0.1858524
	      0.1703046
	      0.1754250
	      0.1317622
	      0.1600298
	      0.1631616
	      0.1314421
	      0.1703035
	      0.1418754
	      0.1573689
	      0.1573676
	      0.1418749
	      0.1703031
	      0.1314433
	      0.1631616
	      0.1639408
	      0.1300331
	      0.1858520
	      0.1573688
	      0.1807294
	      0.1807292
	      0.1573684
	      0.1858508
	      0.1300338
	      0.1639406
	      0.1639404
	      0.1300325
	      0.1858517
	      0.1573675
	      0.1807288
	      0.1807285
	      0.1573672
	      0.1858505
	      0.1300333
	      0.1639402
	      0.1631606
	      0.1314409
	      0.1703037
	      0.1418749
	      0.1573683
	      0.1573670
	      0.1418744
	      0.1703032
	      0.1314420
	      0.1631606
	      0.1600280
	      0.1317599
	      0.1754237
	      0.1703022
	      0.1858501
	      0.1858497
	      0.1703021
	      0.1754225
	      0.1317610
	      0.1600284
	      0.1612432
	      0.1311735
	      0.1317624
	      0.1314436
	      0.1300343
	      0.1300339
	      0.1314429
	      0.1317618
	      0.1311748
	      0.1612444
	      0.1846392
	      0.1612458
	      0.1600298
	      0.1631619
	      0.1639410
	      0.1639409
	      0.1631615
	      0.1600293
	      0.1612452
	      0.1846391
	      0.1846671
	      0.1612732
	      0.1600630
	      0.1631849
	      0.1639449
	      0.1639448
	      0.1631845
	      0.1600625
	      0.1612727
	      0.1846671
	      0.1612740
	      0.1311727
	      0.1316788
	      0.1312548
	      0.1298035
	      0.1298032
	      0.1312541
	      0.1316782
	      0.1311737
	      0.1612753
	      0.1600640
	      0.1316796
	      0.1766612
	      0.1712565
	      0.1872631
	      0.1872639
	      0.1712568
	      0.1766594
	      0.1316804
	      0.1600643
	      0.1631858
	      0.1312556
	      0.1712552
	      0.1422695
	      0.1577967
	      0.1577963
	      0.1422690
	      0.1712538
	      0.1312566
	      0.1631858
	      0.1639456
	      0.1298040
	      0.1872621
	      0.1577965
	      0.1805875
	      0.1805878
	      0.1577962
	      0.1872606
	      0.1298046
	      0.1639454
	      0.1639452
	      0.1298037
	      0.1872632
	      0.1577964
	      0.1805879
	      0.1805881
	      0.1577960
	      0.1872616
	      0.1298042
	      0.1639450
	      0.1631848
	      0.1312544
	      0.1712559
	      0.1422691
	      0.1577962
	      0.1577958
	      0.1422686
	      0.1712545
	      0.1312553
	      0.1631847
	      0.1600626
	      0.1316784
	      0.1766581
	      0.1712529
	      0.1872599
	      0.1872607
	      0.1712532
	      0.1766563
	      0.1316792
	      0.1600629
	      0.1612727
	      0.1311739
	      0.1316806
	      0.1312568
	      0.1298050
	      0.1298047
	      0.1312561
	      0.1316800
	      0.1311749
	      0.1612739
	      0.1846681
	      0.1612752
	      0.1600643
	      0.1631860
	      0.1639458
	      0.1639456
	      0.1631856
	      0.1600639
	      0.1612747
	      0.1846681
	      0.2352352
	      0.1888068
	      0.1800265
	      0.1793606
	      0.1793010
	      0.1793007
	      0.1793601
	      0.1800258
	      0.1888058
	      0.2352340
	      0.1888074
	      0.1562963
	      0.1518191
	      0.1486394
	      0.1474022
	      0.1474017
	      0.1486388
	      0.1518185
	      0.1562964
	      0.1888074
	      0.1800270
	      0.1518196
	      0.1936194
	      0.1852024
	      0.2069002
	      0.2069016
	      0.1852032
	      0.1936167
	      0.1518206
	      0.1800261
	      0.1793610
	      0.1486399
	      0.1852014
	      0.1585447
	      0.1799724
	      0.1799741
	      0.1585448
	      0.1851979
	      0.1486410
	      0.1793598
	      0.1793011
	      0.1474024
	      0.2068990
	      0.1799724
	      0.2048177
	      0.2048187
	      0.1799721
	      0.2068966
	      0.1474033
	      0.1792998
	      0.1793007
	      0.1474019
	      0.2069003
	      0.1799739
	      0.2048193
	      0.2048203
	      0.1799736
	      0.2068979
	      0.1474027
	      0.1792994
	      0.1793599
	      0.1486389
	      0.1852025
	      0.1585445
	      0.1799718
	      0.1799735
	      0.1585445
	      0.1851990
	      0.1486400
	      0.1793587
	      0.1800254
	      0.1518184
	      0.1936151
	      0.1851973
	      0.2068953
	      0.2068967
	      0.1851981
	      0.1936123
	      0.1518194
	      0.1800245
	      0.1888053
	      0.1562966
	      0.1518205
	      0.1486410
	      0.1474035
	      0.1474030
	      0.1486404
	      0.1518199
	      0.1562967
	      0.1888053
	      0.2352341
	      0.1888069
	      0.1800257
	      0.1793595
	      0.1792998
	      0.1792996
	      0.1793590
	      0.1800250
	      0.1888059
	      0.2352329
	      0.2522963
	      0.1868828
	      0.1700177
	      0.1683488
	      0.1670745
	      0.1670743
	      0.1683483
	      0.1700169
	      0.1868813
	      0.2522937
	      0.1868829
	      0.1547427
	      0.1471359
	      0.1468815
	      0.1460219
	      0.1460217
	      0.1468809
	      0.1471351
	      0.1547419
	      0.1868814
	      0.1700177
	      0.1471358
	      0.1340258
	      0.1266228
	      0.1353513
	      0.1353493
	      0.1266225
	      0.1340264
	      0.1471354
	      0.1700156
	      0.1683485
	      0.1468810
	      0.1266223
	      0.1174989
	      0.1276384
	      0.1276369
	      0.1174989
	      0.1266227
	      0.1468799
	      0.1683463
	      0.1670741
	      0.1460212
	      0.1353516
	      0.1276390
	      0.1383794
	      0.1383772
	      0.1276386
	      0.1353532
	      0.1460199
	      0.1670718
	      0.1670738
	      0.1460210
	      0.1353488
	      0.1276365
	      0.1383766
	      0.1383744
	      0.1276361
	      0.1353504
	      0.1460196
	      0.1670715
	      0.1683477
	      0.1468801
	      0.1266228
	      0.1174991
	      0.1276382
	      0.1276367
	      0.1174991
	      0.1266232
	      0.1468790
	      0.1683454
	      0.1700162
	      0.1471345
	      0.1340255
	      0.1266230
	      0.1353527
	      0.1353507
	      0.1266227
	      0.1340262
	      0.1471341
	      0.1700141
	      0.1868804
	      0.1547420
	      0.1471347
	      0.1468791
	      0.1460192
	      0.1460189
	      0.1468785
	      0.1471340
	      0.1547412
	      0.1868789
	      0.2522931
	      0.1868806
	      0.1700149
	      0.1683456
	      0.1670713
	      0.1670711
	      0.1683451
	      0.1700141
	      0.1868791
	      0.2522905
	      0.1164359
	      0.0890769
	      0.0892128
	      0.0977556
	      0.0983868
	      0.0983868
	      0.0977554
	      0.0892126
	      0.0890766
	      0.1164350
	      0.0890771
	      0.0986285
	      0.0999482
	      0.1169054
	      0.1160962
	      0.1160959
	      0.1169049
	      0.0999478
	      0.0986275
	      0.0890767
	      0.0892127
	      0.0999477
	      0.0820830
	      0.0981655
	      0.0948014
	      0.0948011
	      0.0981648
	      0.0820823
	      0.0999462
	      0.0892120
	      0.0977553
	      0.1169047
	      0.0981655
	      0.1161124
	      0.1130151
	      0.1130149
	      0.1161117
	      0.0981647
	      0.1169029
	      0.0977542
	      0.0983866
	      0.1160955
	      0.0948013
	      0.1130150
	      0.1095226
	      0.1095222
	      0.1130142
	      0.0948005
	      0.1160936
	      0.0983854
	      0.0983865
	      0.1160951
	      0.0948007
	      0.1130144
	      0.1095219
	      0.1095215
	      0.1130136
	      0.0947999
	      0.1160932
	      0.0983853
	      0.0977551
	      0.1169040
	      0.0981644
	      0.1161112
	      0.1130138
	      0.1130135
	      0.1161104
	      0.0981636
	      0.1169022
	      0.0977540
	      0.0892124
	      0.0999470
	      0.0820819
	      0.0981643
	      0.0948001
	      0.0947998
	      0.0981636
	      0.0820813
	      0.0999455
	      0.0892117
	      0.0890765
	      0.0986271
	      0.0999454
	      0.1169020
	      0.1160928
	      0.1160925
	      0.1169015
	      0.0999450
	      0.0986261
	      0.0890762
	      0.1164355
	      0.0890766
	      0.0892117
	      0.0977539
	      0.0983851
	      0.0983851
	      0.0977537
	      0.0892115
	      0.0890763
	      0.1164346
	      1.4744421
	      0.8296701
	      0.8409588
	      0.8760023
	      0.8309876
	      0.8309851
	      0.8759974
	      0.8409552
	      0.8296620
	      1.4744114
	      0.8296634
	      0.1157769
	      0.1287852
	      0.1805506
	      0.1426498
	      0.1426489
	      0.1805499
	      0.1287884
	      0.1157786
	      0.8296446
	      0.8409499
	      0.1287846
	      0.1460980
	      0.2206617
	      0.1778384
	      0.1778372
	      0.2206604
	      0.1461012
	      0.1287862
	      0.8409277
	      0.8759939
	      0.1805512
	      0.2206632
	      0.3148507
	      0.2691122
	      0.2691104
	      0.3148483
	      0.2206660
	      0.1805525
	      0.8759700
	      0.8309785
	      0.1426505
	      0.1778399
	      0.2691120
	      0.2179840
	      0.2179823
	      0.2691100
	      0.1778435
	      0.1426523
	      0.8309551
	      0.8309753
	      0.1426490
	      0.1778377
	      0.2691090
	      0.2179810
	      0.2179794
	      0.2691070
	      0.1778413
	      0.1426508
	      0.8309519
	      0.8759882
	      0.1805500
	      0.2206610
	      0.3148469
	      0.2691085
	      0.2691067
	      0.3148446
	      0.2206637
	      0.1805512
	      0.8759643
	      0.8409469
	      0.1287891
	      0.1461028
	      0.2206665
	      0.1778440
	      0.1778428
	      0.2206653
	      0.1461060
	      0.1287908
	      0.8409247
	      0.8296537
	      0.1157789
	      0.1287869
	      0.1805525
	      0.1426524
	      0.1426515
	      0.1805518
	      0.1287902
	      0.1157805
	      0.8296350
	      1.4743997
	      0.8296364
	      0.8409194
	      0.8759608
	      0.8309454
	      0.8309429
	      0.8759558
	      0.8409158
	      0.8296282
	      1.4743691
