# vtk DataFile Version 3.0
test_file
ASCII
DATASET POLYDATA
POINTS 1000 float
   1.25000 	   -0.00000 	    0.00000
   1.25000 	   -0.00000 	    1.00000
   1.25000 	    0.00000 	    2.00000
   1.25000 	    0.00000 	    3.00000
   1.25000 	    0.00000 	    4.00000
   1.25000 	    0.00000 	    5.00000
   1.25000 	    0.00000 	    6.00000
   1.25000 	    0.00000 	    7.00000
   1.25000 	   -0.00000 	    8.00000
   1.25000 	    0.00000 	    9.00000
   1.25000 	    1.00000 	    0.00000
   1.25000 	    1.00000 	    1.00000
   1.25000 	    1.00000 	    2.00000
   1.25000 	    1.00000 	    3.00000
   1.25000 	    1.00000 	    4.00000
   1.25000 	    1.00000 	    5.00000
   1.25000 	    1.00000 	    6.00000
   1.25000 	    1.00000 	    7.00000
   1.25000 	    1.00000 	    8.00000
   1.25000 	    1.00000 	    9.00000
   1.25000 	    2.00000 	    0.00000
   1.25000 	    2.00000 	    1.00000
   1.25000 	    2.00000 	    2.00000
   1.25000 	    2.00000 	    3.00000
   1.25000 	    2.00000 	    4.00000
   1.25000 	    2.00000 	    5.00000
   1.25000 	    2.00000 	    6.00000
   1.25000 	    2.00000 	    7.00000
   1.25000 	    2.00000 	    8.00000
   1.25000 	    2.00000 	    9.00000
   1.25000 	    3.00000 	    0.00000
   1.25000 	    3.00000 	    1.00000
   1.25000 	    3.00000 	    2.00000
   1.25000 	    3.00000 	    3.00000
   1.25000 	    3.00000 	    4.00000
   1.25000 	    3.00000 	    5.00000
   1.25000 	    3.00000 	    6.00000
   1.25000 	    3.00000 	    7.00000
   1.25000 	    3.00000 	    8.00000
   1.25000 	    3.00000 	    9.00000
   1.25000 	    4.00000 	    0.00000
   1.25000 	    4.00000 	    1.00000
   1.25000 	    4.00000 	    2.00000
   1.25000 	    4.00000 	    3.00000
   1.25000 	    4.00000 	    4.00000
   1.25000 	    4.00000 	    5.00000
   1.25000 	    4.00000 	    6.00000
   1.25000 	    4.00000 	    7.00000
   1.25000 	    4.00000 	    8.00000
   1.25000 	    4.00000 	    9.00000
   1.25000 	    5.00000 	    0.00000
   1.25000 	    5.00000 	    1.00000
   1.25000 	    5.00000 	    2.00000
   1.25000 	    5.00000 	    3.00000
   1.25000 	    5.00000 	    4.00000
   1.25000 	    5.00000 	    5.00000
   1.25000 	    5.00000 	    6.00000
   1.25000 	    5.00000 	    7.00000
   1.25000 	    5.00000 	    8.00000
   1.25000 	    5.00000 	    9.00000
   1.25000 	    6.00000 	    0.00000
   1.25000 	    6.00000 	    1.00000
   1.25000 	    6.00000 	    2.00000
   1.25000 	    6.00000 	    3.00000
   1.25000 	    6.00000 	    4.00000
   1.25000 	    6.00000 	    5.00000
   1.25000 	    6.00000 	    6.00000
   1.25000 	    6.00000 	    7.00000
   1.25000 	    6.00000 	    8.00000
   1.25000 	    6.00000 	    9.00000
   1.25000 	    7.00000 	    0.00000
   1.25000 	    7.00000 	    1.00000
   1.25000 	    7.00000 	    2.00000
   1.25000 	    7.00000 	    3.00000
   1.25000 	    7.00000 	    4.00000
   1.25000 	    7.00000 	    5.00000
   1.25000 	    7.00000 	    6.00000
   1.25000 	    7.00000 	    7.00000
   1.25000 	    7.00000 	    8.00000
   1.25000 	    7.00000 	    9.00000
   1.25000 	    8.00000 	    0.00000
   1.25000 	    8.00000 	    1.00000
   1.25000 	    8.00000 	    2.00000
   1.25000 	    8.00000 	    3.00000
   1.25000 	    8.00000 	    4.00000
   1.25000 	    8.00000 	    5.00000
   1.25000 	    8.00000 	    6.00000
   1.25000 	    8.00000 	    7.00000
   1.25000 	    8.00000 	    8.00000
   1.25000 	    8.00000 	    9.00000
   1.25000 	    9.00000 	    0.00000
   1.25000 	    9.00000 	    1.00000
   1.25000 	    9.00000 	    2.00000
   1.25000 	    9.00000 	    3.00000
   1.25000 	    9.00000 	    4.00000
   1.25000 	    9.00000 	    5.00000
   1.25000 	    9.00000 	    6.00000
   1.25000 	    9.00000 	    7.00000
   1.25000 	    9.00000 	    8.00000
   1.25000 	    9.00000 	    9.00000
   2.27135 	   -0.24828 	   -0.24828
   2.25684 	   -0.26780 	    0.87316
   2.25567 	   -0.26680 	    1.93031
   2.26458 	   -0.27447 	    2.94482
   2.25769 	   -0.27329 	    3.97942
   2.25769 	   -0.27329 	    5.02057
   2.26458 	   -0.27447 	    6.05518
   2.25567 	   -0.26680 	    7.06969
   2.25684 	   -0.26779 	    8.12683
   2.27135 	   -0.24828 	    9.24828
   2.25684 	    0.87316 	   -0.26780
   2.20888 	    0.83142 	    0.83142
   2.19813 	    0.84787 	    1.90834
   2.20153 	    0.84307 	    2.91649
   2.20003 	    0.84728 	    3.96824
   2.20003 	    0.84728 	    5.03174
   2.20153 	    0.84307 	    6.08350
   2.19813 	    0.84787 	    7.09165
   2.20888 	    0.83142 	    8.16857
   2.25684 	    0.87317 	    9.26779
   2.25567 	    1.93031 	   -0.26680
   2.19813 	    1.90834 	    0.84787
   2.21081 	    1.91369 	    1.91369
   2.20963 	    1.91391 	    2.90272
   2.21210 	    1.91421 	    3.96268
   2.21210 	    1.91421 	    5.03731
   2.20963 	    1.91391 	    6.09727
   2.21081 	    1.91369 	    7.08630
   2.19813 	    1.90834 	    8.15212
   2.25567 	    1.93031 	    9.26679
   2.26458 	    2.94482 	   -0.27447
   2.20153 	    2.91648 	    0.84307
   2.20963 	    2.90272 	    1.91391
   2.20532 	    2.90032 	    2.90033
   2.20775 	    2.89928 	    3.96220
   2.20775 	    2.89928 	    5.03779
   2.20533 	    2.90032 	    6.09966
   2.20963 	    2.90272 	    7.08608
   2.20153 	    2.91649 	    8.15692
   2.26458 	    2.94482 	    9.27446
   2.25769 	    3.97942 	   -0.27329
   2.20003 	    3.96824 	    0.84728
   2.21210 	    3.96268 	    1.91421
   2.20775 	    3.96219 	    2.89929
   2.21013 	    3.96212 	    3.96212
   2.21013 	    3.96212 	    5.03787
   2.20775 	    3.96220 	    6.10070
   2.21210 	    3.96268 	    7.08579
   2.20003 	    3.96824 	    8.15271
   2.25769 	    3.97942 	    9.27328
   2.25769 	    5.02057 	   -0.27329
   2.20003 	    5.03174 	    0.84728
   2.21210 	    5.03730 	    1.91421
   2.20775 	    5.03778 	    2.89929
   2.21013 	    5.03786 	    3.96212
   2.21013 	    5.03786 	    5.03787
   2.20775 	    5.03778 	    6.10070
   2.21210 	    5.03730 	    7.08579
   2.20003 	    5.03174 	    8.15271
   2.25769 	    5.02057 	    9.27328
   2.26458 	    6.05518 	   -0.27447
   2.20153 	    6.08350 	    0.84307
   2.20963 	    6.09726 	    1.91391
   2.20533 	    6.09966 	    2.90033
   2.20775 	    6.10070 	    3.96220
   2.20775 	    6.10070 	    5.03779
   2.20533 	    6.09966 	    6.09966
   2.20963 	    6.09726 	    7.08608
   2.20153 	    6.08349 	    8.15692
   2.26458 	    6.05518 	    9.27446
   2.25567 	    7.06968 	   -0.26679
   2.19813 	    7.09164 	    0.84787
   2.21081 	    7.08630 	    1.91370
   2.20963 	    7.08608 	    2.90272
   2.21210 	    7.08578 	    3.96268
   2.21210 	    7.08578 	    5.03731
   2.20963 	    7.08608 	    6.09726
   2.21081 	    7.08629 	    7.08630
   2.19813 	    7.09164 	    8.15212
   2.25567 	    7.06968 	    9.26678
   2.25684 	    8.12683 	   -0.26779
   2.20888 	    8.16856 	    0.83143
   2.19813 	    8.15212 	    1.90835
   2.20153 	    8.15692 	    2.91649
   2.20003 	    8.15270 	    3.96825
   2.20003 	    8.15270 	    5.03174
   2.20153 	    8.15692 	    6.08350
   2.19813 	    8.15212 	    7.09164
   2.20888 	    8.16856 	    8.16856
   2.25684 	    8.12683 	    9.26778
   2.27135 	    9.24828 	   -0.24827
   2.25684 	    9.26779 	    0.87317
   2.25567 	    9.26678 	    1.93031
   2.26458 	    9.27446 	    2.94482
   2.25769 	    9.27328 	    3.97942
   2.25769 	    9.27328 	    5.02057
   2.26458 	    9.27445 	    6.05518
   2.25567 	    9.26678 	    7.06968
   2.25684 	    9.26778 	    8.12683
   2.27135 	    9.24827 	    9.24827
   2.95983 	   -0.35035 	   -0.35035
   3.01497 	   -0.36908 	    0.74048
   3.03430 	   -0.38152 	    1.82838
   3.03495 	   -0.39371 	    2.89502
   3.02957 	   -0.40088 	    3.96567
   3.02957 	   -0.40088 	    5.03432
   3.03495 	   -0.39371 	    6.10497
   3.03430 	   -0.38151 	    7.17161
   3.01498 	   -0.36908 	    8.25951
   2.95984 	   -0.35034 	    9.35034
   3.01498 	    0.74048 	   -0.36908
   3.12349 	    0.70982 	    0.70982
   3.16219 	    0.69572 	    1.83648
   3.16180 	    0.68571 	    2.90287
   3.15510 	    0.67366 	    3.96892
   3.15510 	    0.67366 	    5.03107
   3.16180 	    0.68571 	    6.09712
   3.16219 	    0.69572 	    7.16351
   3.12349 	    0.70982 	    8.29017
   3.01498 	    0.74048 	    9.36907
   3.03430 	    1.82838 	   -0.38151
   3.16219 	    1.83648 	    0.69572
   3.18766 	    1.83910 	    1.83910
   3.17530 	    1.83439 	    2.90429
   3.15876 	    1.82199 	    3.96675
   3.15876 	    1.82199 	    5.03324
   3.17530 	    1.83439 	    6.09570
   3.18766 	    1.83910 	    7.16089
   3.16220 	    1.83648 	    8.30426
   3.03431 	    1.82838 	    9.38150
   3.03496 	    2.89501 	   -0.39371
   3.16180 	    2.90286 	    0.68572
   3.17530 	    2.90428 	    1.83439
   3.15948 	    2.90113 	    2.90113
   3.14190 	    2.89535 	    3.96531
   3.14190 	    2.89535 	    5.03468
   3.15948 	    2.90113 	    6.09885
   3.17530 	    2.90428 	    7.16560
   3.16180 	    2.90287 	    8.31427
   3.03496 	    2.89502 	    9.39369
   3.02957 	    3.96567 	   -0.40087
   3.15510 	    3.96891 	    0.67366
   3.15876 	    3.96675 	    1.82199
   3.14190 	    3.96530 	    2.89536
   3.12261 	    3.96338 	    3.96339
   3.12261 	    3.96338 	    5.03660
   3.14190 	    3.96530 	    6.10463
   3.15876 	    3.96675 	    7.17800
   3.15510 	    3.96891 	    8.32632
   3.02957 	    3.96567 	    9.40086
   3.02957 	    5.03432 	   -0.40087
   3.15510 	    5.03107 	    0.67366
   3.15876 	    5.03323 	    1.82200
   3.14190 	    5.03468 	    2.89536
   3.12261 	    5.03659 	    3.96339
   3.12261 	    5.03659 	    5.03660
   3.14190 	    5.03468 	    6.10463
   3.15876 	    5.03323 	    7.17799
   3.15510 	    5.03107 	    8.32632
   3.02957 	    5.03432 	    9.40086
   3.03496 	    6.10497 	   -0.39370
   3.16180 	    6.09712 	    0.68572
   3.17530 	    6.09570 	    1.83439
   3.15948 	    6.09885 	    2.90113
   3.14190 	    6.10462 	    3.96531
   3.14190 	    6.10462 	    5.03468
   3.15947 	    6.09885 	    6.09885
   3.17530 	    6.09570 	    7.16560
[...]
POINT_DATA 1000
SCALARS C float
LOOKUP_TABLE default
	      1.6814028
	      0.9369857
	      0.9546001
	      0.9963969
	      0.9436882
	      0.9436842
	      0.9963902
	      0.9545996
	      0.9369798
	      1.6813677
	      0.9369773
	      0.1109251
	      0.1302239
	      0.1932200
	      0.1475734
	      0.1475710
	      0.1932170
	      0.1302293
	      0.1109277
	      0.9369552
	      0.9545899
	      0.1302238
	      0.1556590
	      0.2465705
	      0.1949126
	      0.1949096
	      0.2465662
	      0.1556644
	      0.1302286
	      0.9545634
	      0.9963878
	      0.1932219
	      0.2465730
	      0.3600723
	      0.3041576
	      0.3041545
	      0.3600672
	      0.2465776
	      0.1932266
	      0.9963597
	      0.9436781
	      0.1475748
	      0.1949146
	      0.3041572
	      0.2407195
	      0.2407164
	      0.3041522
	      0.1949193
	      0.1475798
	      0.9436507
	      0.9436732
	      0.1475712
	      0.1949099
	      0.3041521
	      0.2407145
	      0.2407114
	      0.3041471
	      0.1949146
	      0.1475762
	      0.9436458
	      0.9963798
	      0.1932173
	      0.2465667
	      0.3600646
	      0.3041498
	      0.3041467
	      0.3600596
	      0.2465713
	      0.1932220
	      0.9963518
	      0.9545906
	      0.1302311
	      0.1556674
	      0.2465781
	      0.1949197
	      0.1949167
	      0.2465738
	      0.1556728
	      0.1302359
	      0.9545641
	      0.9369704
	      0.1109284
	      0.1302304
	      0.1932269
	      0.1475801
	      0.1475776
	      0.1932238
	      0.1302358
	      0.1109310
	      0.9369483
	      1.6813557
	      0.9369458
	      0.9545544
	      0.9963494
	      0.9436397
	      0.9436357
	      0.9963426
	      0.9545539
	      0.9369399
	      1.6813207
	      0.1341825
	      0.1025139
	      0.1026760
	      0.1125308
	      0.1130247
	      0.1130246
	      0.1125307
	      0.1026757
	      0.1025130
	      0.1341817
	      0.1025140
	      0.1142765
	      0.1158185
	      0.1348223
	      0.1338539
	      0.1338536
	      0.1348227
	      0.1158178
	      0.1142757
	      0.1025123
	      0.1026756
	      0.1158179
	      0.0960962
	      0.1141673
	      0.1103611
	      0.1103606
	      0.1141688
	      0.0960957
	      0.1158174
	      0.1026735
	      0.1125301
	      0.1348215
	      0.1141669
	      0.1346239
	      0.1311671
	      0.1311665
	      0.1346255
	      0.1141667
	      0.1348209
	      0.1125275
	      0.1130242
	      0.1338534
	      0.1103611
	      0.1311675
	      0.1273869
	      0.1273863
	      0.1311692
	      0.1103611
	      0.1338527
	      0.1130217
	      0.1130241
	      0.1338530
	      0.1103605
	      0.1311667
	      0.1273860
	      0.1273854
	      0.1311683
	      0.1103605
	      0.1338524
	      0.1130216
	      0.1125301
	      0.1348222
	      0.1141689
	      0.1346261
	      0.1311694
	      0.1311687
	      0.1346276
	      0.1141687
	      0.1348216
	      0.1125275
	      0.1026750
	      0.1158170
	      0.0960952
	      0.1141669
	      0.1103610
	      0.1103606
	      0.1141683
	      0.0960947
	      0.1158165
	      0.1026729
	      0.1025126
	      0.1142755
	      0.1158166
	      0.1348204
	      0.1338522
	      0.1338518
	      0.1348207
	      0.1158159
	      0.1142748
	      0.1025109
	      0.1341819
	      0.1025119
	      0.1026728
	      0.1125269
	      0.1130212
	      0.1130211
	      0.1125269
	      0.1026725
	      0.1025110
	      0.1341811
	      0.2810982
	      0.2095615
	      0.1908516
	      0.1888322
	      0.1872538
	      0.1872537
	      0.1888318
	      0.1908507
	      0.2095599
	      0.2810963
	      0.2095617
	      0.1770968
	      0.1693661
	      0.1688616
	      0.1682738
	      0.1682737
	      0.1688612
	      0.1693651
	      0.1770951
	      0.2095619
	      0.1908518
	      0.1693655
	      0.1469391
	      0.1365652
	      0.1499309
	      0.1499320
	      0.1365657
	      0.1469347
	      0.1693630
	      0.1908519
	      0.1888323
	      0.1688606
	      0.1365643
	      0.1246476
	      0.1389350
	      0.1389351
	      0.1246477
	      0.1365605
	      0.1688580
	      0.1888322
	      0.1872538
	      0.1682728
	      0.1499296
	      0.1389347
	      0.1544358
	      0.1544365
	      0.1389349
	      0.1499250
	      0.1682700
	      0.1872537
	      0.1872536
	      0.1682727
	      0.1499312
	      0.1389351
	      0.1544360
	      0.1544366
	      0.1389352
	      0.1499266
	      0.1682699
	      0.1872535
	      0.1888316
	      0.1688602
	      0.1365644
	      0.1246478
	      0.1389349
	      0.1389350
	      0.1246479
	      0.1365605
	      0.1688576
	      0.1888315
	      0.1908503
	      0.1693639
	      0.1469327
	      0.1365591
	      0.1499241
	      0.1499253
	      0.1365596
	      0.1469282
	      0.1693614
	      0.1908504
	      0.2095595
	      0.1770949
	      0.1693618
	      0.1688570
	      0.1682690
	      0.1682689
	      0.1688566
	      0.1693608
	      0.1770932
	      0.2095597
	      0.2810965
	      0.2095615
	      0.1908515
	      0.1888320
	      0.1872537
	      0.1872535
	      0.1888316
	      0.1908506
	      0.2095598
	      0.2810946
	      0.2595415
	      0.2101909
	      0.2007480
	      0.1997742
	      0.1995441
	      0.1995440
	      0.1997737
	      0.2007471
	      0.2101895
	      0.2595403
	      0.2101915
	      0.1758105
	      0.1712293
	      0.1669244
	      0.1656169
	      0.1656168
	      0.1669241
	      0.1712285
	      0.1758109
	      0.2101918
	      0.2007486
	      0.1712297
	      0.2279670
	      0.2174307
	      0.2426451
	      0.2426439
	      0.2174310
	      0.2279655
	      0.1712304
	      0.2007482
	      0.1997747
	      0.1669247
	      0.2174296
	      0.1836613
	      0.2086297
	      0.2086281
	      0.1836623
	      0.2174294
	      0.1669252
	      0.1997740
	      0.1995444
	      0.1656171
	      0.2426442
	      0.2086301
	      0.2382547
	      0.2382529
	      0.2086309
	      0.2426433
	      0.1656171
	      0.1995436
	      0.1995441
	      0.1656168
	      0.2426431
	      0.2086281
	      0.2382520
	      0.2382502
	      0.2086290
	      0.2426422
	      0.1656168
	      0.1995433
	      0.1997737
	      0.1669240
	      0.2174303
	      0.1836626
	      0.2086309
	      0.2086294
	      0.1836635
	      0.2174301
	      0.1669245
	      0.1997730
	      0.2007468
	      0.1712284
	      0.2279643
	      0.2174287
	      0.2426425
	      0.2426413
	      0.2174290
	      0.2279627
	      0.1712290
	      0.2007464
	      0.2101890
	      0.1758113
	      0.1712302
	      0.1669251
	      0.1656171
	      0.1656170
	      0.1669248
	      0.1712295
	      0.1758118
	      0.2101893
	      0.2595403
	      0.2101913
	      0.2007479
	      0.1997739
	      0.1995438
	      0.1995436
	      0.1997735
	      0.2007470
	      0.2101899
	      0.2595392
	      0.2004061
	      0.1778700
	      0.1771677
	      0.1806327
	      0.1813988
	      0.1813986
	      0.1806323
	      0.1771672
	      0.1778693
	      0.2004062
	      0.1778709
	      0.1457207
	      0.1466080
	      0.1458901
	      0.1439933
	      0.1439929
	      0.1458900
	      0.1466078
	      0.1457223
	      0.1778724
	      0.1771688
	      0.1466090
	      0.2079995
	      0.1973362
	      0.2176638
	      0.2176642
	      0.1973361
	      0.2079953
	      0.1466114
	      0.1771695
	      0.1806338
	      0.1458913
	      0.1973347
	      0.1565854
	      0.1780611
	      0.1780625
	      0.1565863
	      0.1973306
	      0.1458935
	      0.1806341
	      0.1813996
	      0.1439942
	      0.2176622
	      0.1780615
	      0.2070104
	      0.2070102
	      0.1780611
	      0.2176589
	      0.1439963
	      0.1813998
	      0.1813992
	      0.1439937
	      0.2176625
	      0.1780626
	      0.2070104
	      0.2070102
	      0.1780621
	      0.2176592
	      0.1439957
	      0.1813994
	      0.1806327
	      0.1458906
	      0.1973352
	      0.1565861
	      0.1780611
	      0.1780626
	      0.1565869
	      0.1973311
	      0.1458927
	      0.1806330
	      0.1771673
	      0.1466080
	      0.2079935
	      0.1973297
	      0.2176573
	      0.2176576
	      0.1973296
	      0.2079893
	      0.1466104
	      0.1771680
	      0.1778693
	      0.1457230
	      0.1466116
	      0.1458941
	      0.1439970
	      0.1439967
	      0.1458939
	      0.1466114
	      0.1457246
	      0.1778707
	      0.2004070
	      0.1778723
	      0.1771696
	      0.1806345
	      0.1814004
	      0.1814002
	      0.1806341
	      0.1771691
	      0.1778717
	      0.2004071
	      0.2003945
	      0.1778796
	      0.1771961
	      0.1806599
	      0.1814166
	      0.1814164
	      0.1806594
	      0.1771957
	      0.1778791
	      0.2003947
	      0.1778806
	      0.1457899
	      0.1468570
	      0.1462114
	      0.1442885
	      0.1442880
	      0.1462111
	      0.1468568
	      0.1457913
	      0.1778821
	      0.1771973
	      0.1468580
	      0.2068878
	      0.1967894
	      0.2167445
	      0.2167453
	      0.1967891
	      0.2068851
	      0.1468601
	      0.1771979
	      0.1806610
	      0.1462125
	      0.1967881
	      0.1569886
	      0.1784627
	      0.1784648
	      0.1569895
	      0.1967860
	      0.1462143
	      0.1806611
	      0.1814174
	      0.1442893
	      0.2167431
	      0.1784629
	      0.2080751
	      0.2080764
	      0.1784627
	      0.2167414
	      0.1442908
	      0.1814174
	      0.1814169
	      0.1442886
	      0.2167442
	      0.1784652
	      0.2080768
	      0.2080781
	      0.1784649
	      0.2167425
	      0.1442901
	      0.1814169
	      0.1806598
	      0.1462116
	      0.1967883
	      0.1569893
	      0.1784630
	      0.1784652
	      0.1569902
	      0.1967862
	      0.1462134
	      0.1806600
	      0.1771958
	      0.1468570
	      0.2068840
	      0.1967852
	      0.2167404
	      0.2167411
	      0.1967849
	      0.2068813
	      0.1468590
	      0.1771963
	      0.1778791
	      0.1457917
	      0.1468602
	      0.1462148
	      0.1442914
	      0.1442910
	      0.1462145
	      0.1468600
	      0.1457931
	      0.1778807
	      0.2003957
	      0.1778822
	      0.1771980
	      0.1806615
	      0.1814180
	      0.1814178
	      0.1806611
	      0.1771975
	      0.1778817
	      0.2003959
	      0.2596132
	      0.2102541
	      0.2008173
	      0.1998192
	      0.1995722
	      0.1995719
	      0.1998185
	      0.2008164
	      0.2102531
	      0.2596122
	      0.2102548
	      0.1759247
	      0.1715274
	      0.1672592
	      0.1660210
	      0.1660210
	      0.1672589
	      0.1715266
	      0.1759248
	      0.2102551
	      0.2008179
	      0.1715280
	      0.2270728
	      0.2172775
	      0.2418566
	      0.2418554
	      0.2172763
	      0.2270713
	      0.1715289
	      0.2008170
	      0.1998197
	      0.1672597
	      0.2172764
	      0.1846955
	      0.2086821
	      0.2086806
	      0.1846939
	      0.2172760
	      0.1672605
	      0.1998183
	      0.1995724
	      0.1660212
	      0.2418558
	      0.2086819
	      0.2373420
	      0.2373405
	      0.2086800
	      0.2418546
	      0.1660216
	      0.1995709
	      0.1995720
	      0.1660210
	      0.2418549
	      0.2086801
	      0.2373395
	      0.2373380
	      0.2086782
	      0.2418538
	      0.1660214
	      0.1995705
	      0.1998184
	      0.1672588
	      0.2172753
	      0.1846932
	      0.2086796
	      0.2086780
	      0.1846917
	      0.2172749
	      0.1672596
	      0.1998170
	      0.2008160
	      0.1715263
	      0.2270702
	      0.2172750
	      0.2418541
	      0.2418529
	      0.2172738
	      0.2270687
	      0.1715272
	      0.2008151
	      0.2102526
	      0.1759251
	      0.1715286
	      0.1672604
	      0.1660216
	      0.1660216
	      0.1672601
	      0.1715277
	      0.1759253
	      0.2102528
	      0.2596124
	      0.2102545
	      0.2008167
	      0.1998181
	      0.1995710
	      0.1995707
	      0.1998175
	      0.2008158
	      0.2102535
	      0.2596115
	      0.2814636
	      0.2097854
	      0.1910648
	      0.1890299
	      0.1874479
	      0.1874477
	      0.1890293
	      0.1910639
	      0.2097840
	      0.2814612
	      0.2097857
	      0.1771751
	      0.1694017
	      0.1688445
	      0.1683114
	      0.1683112
	      0.1688438
	      0.1694010
	      0.1771743
	      0.2097842
	      0.1910647
	      0.1694016
	      0.1465035
	      0.1367444
	      0.1497088
	      0.1497110
	      0.1367455
	      0.1465009
	      0.1694017
	      0.1910626
	      0.1890296
	      0.1688440
	      0.1367436
	      0.1257644
	      0.1394207
	      0.1394227
	      0.1257655
	      0.1367412
	      0.1688441
	      0.1890273
	      0.1874475
	      0.1683108
	      0.1497077
	      0.1394206
	      0.1538505
	      0.1538526
	      0.1394218
	      0.1497047
	      0.1683109
	      0.1874451
	      0.1874472
	      0.1683106
	      0.1497107
	      0.1394233
	      0.1538528
	      0.1538549
	      0.1394244
	      0.1497077
	      0.1683107
	      0.1874449
	      0.1890287
	      0.1688432
	      0.1367447
	      0.1257658
	      0.1394224
	      0.1394244
	      0.1257669
	      0.1367422
	      0.1688433
	      0.1890264
	      0.1910631
	      0.1694003
	      0.1465000
	      0.1367404
	      0.1497043
	      0.1497065
	      0.1367415
	      0.1464974
	      0.1694005
	      0.1910610
	      0.2097831
	      0.1771746
	      0.1694011
	      0.1688435
	      0.1683103
	      0.1683102
	      0.1688428
	      0.1694004
	      0.1771737
	      0.2097817
	      0.2814606
	      0.2097834
	      0.1910619
	      0.1890267
	      0.1874447
	      0.1874445
	      0.1890261
	      0.1910610
	      0.2097819
	      0.2814582
	      0.1346012
	      0.1027446
	      0.1029158
	      0.1127991
	      0.1133139
	      0.1133138
	      0.1127989
	      0.1029156
	      0.1027443
	      0.1346001
	      0.1027447
	      0.1142150
	      0.1157269
	      0.1347626
	      0.1338028
	      0.1338024
	      0.1347618
	      0.1157266
	      0.1142139
	      0.1027442
	      0.1029155
	      0.1157263
	      0.0958147
	      0.1138982
	      0.1101528
	      0.1101520
	      0.1138972
	      0.0958145
	      0.1157248
	      0.1029147
	      0.1127988
	      0.1347618
	      0.1138982
	      0.1343576
	      0.1310761
	      0.1310749
	      0.1343563
	      0.1138982
	      0.1347601
	      0.1127975
	      0.1133136
	      0.1338021
	      0.1101529
	      0.1310761
	      0.1275593
	      0.1275582
	      0.1310750
	      0.1101530
	      0.1338003
	      0.1133122
	      0.1133135
	      0.1338015
	      0.1101518
	      0.1310745
	      0.1275577
	      0.1275565
	      0.1310734
	      0.1101518
	      0.1337997
	      0.1133121
	      0.1127985
	      0.1347609
	      0.1138969
	      0.1343559
	      0.1310745
	      0.1310734
	      0.1343547
	      0.1138968
	      0.1347591
	      0.1127972
	      0.1029152
	      0.1157256
	      0.0958141
	      0.1138978
	      0.1101527
	      0.1101519
	      0.1138968
	      0.0958138
	      0.1157241
	      0.1029144
	      0.1027441
	      0.1142134
	      0.1157239
	      0.1347591
	      0.1337995
	      0.1337990
	      0.1347584
	      0.1157235
	      0.1142123
	      0.1027436
	      0.1346006
	      0.1027440
	      0.1029143
	      0.1127971
	      0.1133119
	      0.1133118
	      0.1127968
	      0.1029141
	      0.1027437
	      0.1345995
	      1.6814655
	      0.9370509
	      0.9546540
	      0.9966459
	      0.9438714
	      0.9438688
	      0.9966406
	      0.9546508
	      0.9370432
	      1.6814323
	      0.9370434
	      0.1115839
	      0.1306393
	      0.1936496
	      0.1479610
	      0.1479598
	      0.1936485
	      0.1306429
	      0.1115863
	      0.9370232
	      0.9546443
	      0.1306387
	      0.1557787
	      0.2466730
	      0.1948832
	      0.1948815
	      0.2466711
	      0.1557823
	      0.1306411
	      0.9546205
	      0.9966369
	      0.1936504
	      0.2466747
	      0.3602896
	      0.3042967
	      0.3042947
	      0.3602869
	      0.2466777
	      0.1936525
	      0.9966116
	      0.9438619
	      0.1479619
	      0.1948849
	      0.3042965
	      0.2409189
	      0.2409168
	      0.3042937
	      0.1948885
	      0.1479648
	      0.9438372
	      0.9438585
	      0.1479600
	      0.1948820
	      0.3042930
	      0.2409153
	      0.2409132
	      0.3042902
	      0.1948856
	      0.1479629
	      0.9438338
	      0.9966306
	      0.1936487
	      0.2466717
	      0.3602852
	      0.3042920
	      0.3042900
	      0.3602825
	      0.2466747
	      0.1936508
	      0.9966052
	      0.9546418
	      0.1306440
	      0.1557843
	      0.2466783
	      0.1948890
	      0.1948873
	      0.2466764
	      0.1557878
	      0.1306464
	      0.9546181
	      0.9370344
	      0.1115871
	      0.1306422
	      0.1936527
	      0.1479650
	      0.1479638
	      0.1936516
	      0.1306458
	      0.1115895
	      0.9370142
	      1.6814195
	      0.9370144
	      0.9546116
	      0.9966016
	      0.9438269
	      0.9438243
	      0.9965963
	      0.9546084
	      0.9370068
	      1.6813862
