# vtk DataFile Version 3.0
test_file
ASCII
DATASET POLYDATA
POINTS 1000 float
   0.30000 	   -0.00000 	    0.00000
   0.30000 	   -0.00000 	    1.00000
   0.30000 	    0.00000 	    2.00000
   0.30000 	    0.00000 	    3.00000
   0.30000 	    0.00000 	    4.00000
   0.30000 	    0.00000 	    5.00000
   0.30000 	    0.00000 	    6.00000
   0.30000 	    0.00000 	    7.00000
   0.30000 	   -0.00000 	    8.00000
   0.30000 	    0.00000 	    9.00000
   0.30000 	    1.00000 	    0.00000
   0.30000 	    1.00000 	    1.00000
   0.30000 	    1.00000 	    2.00000
   0.30000 	    1.00000 	    3.00000
   0.30000 	    1.00000 	    4.00000
   0.30000 	    1.00000 	    5.00000
   0.30000 	    1.00000 	    6.00000
   0.30000 	    1.00000 	    7.00000
   0.30000 	    1.00000 	    8.00000
   0.30000 	    1.00000 	    9.00000
   0.30000 	    2.00000 	    0.00000
   0.30000 	    2.00000 	    1.00000
   0.30000 	    2.00000 	    2.00000
   0.30000 	    2.00000 	    3.00000
   0.30000 	    2.00000 	    4.00000
   0.30000 	    2.00000 	    5.00000
   0.30000 	    2.00000 	    6.00000
   0.30000 	    2.00000 	    7.00000
   0.30000 	    2.00000 	    8.00000
   0.30000 	    2.00000 	    9.00000
   0.30000 	    3.00000 	    0.00000
   0.30000 	    3.00000 	    1.00000
   0.30000 	    3.00000 	    2.00000
   0.30000 	    3.00000 	    3.00000
   0.30000 	    3.00000 	    4.00000
   0.30000 	    3.00000 	    5.00000
   0.30000 	    3.00000 	    6.00000
   0.30000 	    3.00000 	    7.00000
   0.30000 	    3.00000 	    8.00000
   0.30000 	    3.00000 	    9.00000
   0.30000 	    4.00000 	    0.00000
   0.30000 	    4.00000 	    1.00000
   0.30000 	    4.00000 	    2.00000
   0.30000 	    4.00000 	    3.00000
   0.30000 	    4.00000 	    4.00000
   0.30000 	    4.00000 	    5.00000
   0.30000 	    4.00000 	    6.00000
   0.30000 	    4.00000 	    7.00000
   0.30000 	    4.00000 	    8.00000
   0.30000 	    4.00000 	    9.00000
   0.30000 	    5.00000 	    0.00000
   0.30000 	    5.00000 	    1.00000
   0.30000 	    5.00000 	    2.00000
   0.30000 	    5.00000 	    3.00000
   0.30000 	    5.00000 	    4.00000
   0.30000 	    5.00000 	    5.00000
   0.30000 	    5.00000 	    6.00000
   0.30000 	    5.00000 	    7.00000
   0.30000 	    5.00000 	    8.00000
   0.30000 	    5.00000 	    9.00000
   0.30000 	    6.00000 	    0.00000
   0.30000 	    6.00000 	    1.00000
   0.30000 	    6.00000 	    2.00000
   0.30000 	    6.00000 	    3.00000
   0.30000 	    6.00000 	    4.00000
   0.30000 	    6.00000 	    5.00000
   0.30000 	    6.00000 	    6.00000
   0.30000 	    6.00000 	    7.00000
   0.30000 	    6.00000 	    8.00000
   0.30000 	    6.00000 	    9.00000
   0.30000 	    7.00000 	    0.00000
   0.30000 	    7.00000 	    1.00000
   0.30000 	    7.00000 	    2.00000
   0.30000 	    7.00000 	    3.00000
   0.30000 	    7.00000 	    4.00000
   0.30000 	    7.00000 	    5.00000
   0.30000 	    7.00000 	    6.00000
   0.30000 	    7.00000 	    7.00000
   0.30000 	    7.00000 	    8.00000
   0.30000 	    7.00000 	    9.00000
   0.30000 	    8.00000 	    0.00000
   0.30000 	    8.00000 	    1.00000
   0.30000 	    8.00000 	    2.00000
   0.30000 	    8.00000 	    3.00000
   0.30000 	    8.00000 	    4.00000
   0.30000 	    8.00000 	    5.00000
   0.30000 	    8.00000 	    6.00000
   0.30000 	    8.00000 	    7.00000
   0.30000 	    8.00000 	    8.00000
   0.30000 	    8.00000 	    9.00000
   0.30000 	    9.00000 	    0.00000
   0.30000 	    9.00000 	    1.00000
   0.30000 	    9.00000 	    2.00000
   0.30000 	    9.00000 	    3.00000
   0.30000 	    9.00000 	    4.00000
   0.30000 	    9.00000 	    5.00000
   0.30000 	    9.00000 	    6.00000
   0.30000 	    9.00000 	    7.00000
   0.30000 	    9.00000 	    8.00000
   0.30000 	    9.00000 	    9.00000
   1.29780 	   -0.05222 	   -0.05222
   1.29437 	   -0.05647 	    0.96981
   1.29226 	   -0.05724 	    1.98457
   1.29364 	   -0.05915 	    2.98749
   1.29272 	   -0.05910 	    3.99510
   1.29272 	   -0.05910 	    5.00490
   1.29364 	   -0.05915 	    6.01250
   1.29226 	   -0.05724 	    7.01542
   1.29437 	   -0.05647 	    8.03018
   1.29780 	   -0.05222 	    9.05222
   1.29437 	    0.96981 	   -0.05647
   1.29418 	    0.95871 	    0.95872
   1.28785 	    0.96115 	    1.98335
   1.28880 	    0.95963 	    2.97946
   1.28895 	    0.96116 	    3.99139
   1.28895 	    0.96116 	    5.00861
   1.28880 	    0.95963 	    6.02054
   1.28785 	    0.96115 	    7.01665
   1.29418 	    0.95872 	    8.04128
   1.29437 	    0.96982 	    9.05647
   1.29226 	    1.98457 	   -0.05724
   1.28785 	    1.98335 	    0.96115
   1.28599 	    1.98438 	    1.98438
   1.28530 	    1.98485 	    2.97380
   1.28698 	    1.98461 	    3.98959
   1.28698 	    1.98461 	    5.01040
   1.28530 	    1.98485 	    6.02620
   1.28599 	    1.98438 	    7.01562
   1.28785 	    1.98335 	    8.03885
   1.29226 	    1.98458 	    9.05724
   1.29364 	    2.98749 	   -0.05914
   1.28880 	    2.97945 	    0.95963
   1.28530 	    2.97379 	    1.98485
   1.28358 	    2.97342 	    2.97342
   1.28511 	    2.97264 	    3.98976
   1.28511 	    2.97264 	    5.01023
   1.28358 	    2.97342 	    6.02657
   1.28530 	    2.97380 	    7.01515
   1.28880 	    2.97945 	    8.04036
   1.29364 	    2.98749 	    9.05914
   1.29272 	    3.99510 	   -0.05910
   1.28895 	    3.99139 	    0.96116
   1.28698 	    3.98959 	    1.98461
   1.28511 	    3.98976 	    2.97264
   1.28665 	    3.98958 	    3.98958
   1.28665 	    3.98958 	    5.01041
   1.28511 	    3.98976 	    6.02735
   1.28698 	    3.98959 	    7.01539
   1.28895 	    3.99139 	    8.03884
   1.29272 	    3.99510 	    9.05910
   1.29272 	    5.00490 	   -0.05910
   1.28895 	    5.00861 	    0.96116
   1.28698 	    5.01040 	    1.98461
   1.28511 	    5.01023 	    2.97264
   1.28665 	    5.01041 	    3.98958
   1.28665 	    5.01041 	    5.01041
   1.28511 	    5.01023 	    6.02735
   1.28698 	    5.01040 	    7.01539
   1.28895 	    5.00861 	    8.03884
   1.29272 	    5.00490 	    9.05910
   1.29364 	    6.01250 	   -0.05914
   1.28880 	    6.02054 	    0.95963
   1.28530 	    6.02620 	    1.98485
   1.28358 	    6.02657 	    2.97342
   1.28511 	    6.02735 	    3.98976
   1.28511 	    6.02735 	    5.01023
   1.28358 	    6.02657 	    6.02657
   1.28530 	    6.02620 	    7.01515
   1.28880 	    6.02054 	    8.04036
   1.29364 	    6.01250 	    9.05914
   1.29226 	    7.01542 	   -0.05724
   1.28785 	    7.01665 	    0.96115
   1.28599 	    7.01562 	    1.98438
   1.28530 	    7.01515 	    2.97380
   1.28698 	    7.01539 	    3.98959
   1.28698 	    7.01539 	    5.01040
   1.28530 	    7.01515 	    6.02620
   1.28599 	    7.01562 	    7.01562
   1.28785 	    7.01665 	    8.03885
   1.29226 	    7.01542 	    9.05724
   1.29437 	    8.03018 	   -0.05647
   1.29418 	    8.04128 	    0.95872
   1.28785 	    8.03885 	    1.98335
   1.28880 	    8.04036 	    2.97946
   1.28895 	    8.03884 	    3.99139
   1.28895 	    8.03884 	    5.00861
   1.28880 	    8.04036 	    6.02054
   1.28785 	    8.03885 	    7.01665
   1.29418 	    8.04128 	    8.04128
   1.29437 	    8.03018 	    9.05646
   1.29780 	    9.05222 	   -0.05222
   1.29437 	    9.05647 	    0.96982
   1.29226 	    9.05724 	    1.98458
   1.29364 	    9.05914 	    2.98749
   1.29272 	    9.05910 	    3.99510
   1.29272 	    9.05910 	    5.00490
   1.29364 	    9.05914 	    6.01250
   1.29226 	    9.05724 	    7.01542
   1.29437 	    9.05646 	    8.03018
   1.29780 	    9.05222 	    9.05222
   2.23237 	   -0.07564 	   -0.07564
   2.24413 	   -0.07972 	    0.94275
   2.24734 	   -0.08359 	    1.96238
   2.24674 	   -0.08701 	    2.97685
   2.24557 	   -0.08877 	    3.99241
   2.24557 	   -0.08877 	    5.00759
   2.24674 	   -0.08701 	    6.02315
   2.24734 	   -0.08359 	    7.03761
   2.24413 	   -0.07972 	    8.05725
   2.23237 	   -0.07564 	    9.07564
   2.24413 	    0.94275 	   -0.07972
   2.27559 	    0.93640 	    0.93640
   2.28648 	    0.92961 	    1.96810
   2.28393 	    0.92682 	    2.97960
   2.28223 	    0.92429 	    3.99379
   2.28223 	    0.92429 	    5.00621
   2.28393 	    0.92682 	    6.02040
   2.28648 	    0.92961 	    7.03190
   2.27559 	    0.93640 	    8.06360
   2.24413 	    0.94275 	    9.07971
   2.24734 	    1.96238 	   -0.08359
   2.28648 	    1.96810 	    0.92961
   2.28987 	    1.96431 	    1.96431
   2.28399 	    1.96394 	    2.98301
   2.28090 	    1.96121 	    3.99489
   2.28090 	    1.96121 	    5.00511
   2.28399 	    1.96394 	    6.01699
   2.28986 	    1.96431 	    7.03569
   2.28648 	    1.96810 	    8.07038
   2.24734 	    1.96238 	    9.08358
   2.24674 	    2.97685 	   -0.08701
   2.28393 	    2.97960 	    0.92682
   2.28399 	    2.98301 	    1.96394
   2.27775 	    2.98190 	    2.98190
   2.27410 	    2.98111 	    3.99404
   2.27410 	    2.98111 	    5.00596
   2.27774 	    2.98190 	    6.01810
   2.28399 	    2.98301 	    7.03605
   2.28393 	    2.97960 	    8.07318
   2.24674 	    2.97685 	    9.08701
   2.24557 	    3.99241 	   -0.08877
   2.28223 	    3.99379 	    0.92429
   2.28090 	    3.99489 	    1.96121
   2.27410 	    3.99404 	    2.98111
   2.26993 	    3.99358 	    3.99358
   2.26992 	    3.99358 	    5.00642
   2.27410 	    3.99404 	    6.01889
   2.28090 	    3.99489 	    7.03879
   2.28223 	    3.99379 	    8.07571
   2.24557 	    3.99241 	    9.08877
   2.24557 	    5.00759 	   -0.08877
   2.28223 	    5.00621 	    0.92429
   2.28089 	    5.00511 	    1.96121
   2.27410 	    5.00596 	    2.98111
   2.26992 	    5.00642 	    3.99358
   2.26992 	    5.00642 	    5.00642
   2.27410 	    5.00596 	    6.01889
   2.28089 	    5.00511 	    7.03879
   2.28223 	    5.00621 	    8.07571
   2.24557 	    5.00759 	    9.08877
   2.24674 	    6.02315 	   -0.08701
   2.28393 	    6.02039 	    0.92682
   2.28399 	    6.01698 	    1.96394
   2.27774 	    6.01810 	    2.98190
   2.27410 	    6.01889 	    3.99404
   2.27410 	    6.01889 	    5.00596
   2.27774 	    6.01810 	    6.01810
   2.28398 	    6.01698 	    7.03605
[...]
POINT_DATA 1000
SCALARS C float
LOOKUP_TABLE default
	      0.8140788
	      0.4654524
	      0.4509410
	      0.4721242
	      0.4541973
	      0.4541949
	      0.4721208
	      0.4509390
	      0.4654452
	      0.8140558
	      0.4654480
	      0.1199192
	      0.1089822
	      0.1299388
	      0.1143197
	      0.1143184
	      0.1299380
	      0.1089843
	      0.1199181
	      0.4654333
	      0.4509348
	      0.1089813
	      0.1030312
	      0.1327507
	      0.1160043
	      0.1160025
	      0.1327492
	      0.1030336
	      0.1089810
	      0.4509189
	      0.4721181
	      0.1299387
	      0.1327516
	      0.1711541
	      0.1542486
	      0.1542466
	      0.1711524
	      0.1327537
	      0.1299381
	      0.4721009
	      0.4541908
	      0.1143197
	      0.1160053
	      0.1542485
	      0.1354551
	      0.1354533
	      0.1542470
	      0.1160076
	      0.1143193
	      0.4541736
	      0.4541877
	      0.1143177
	      0.1160026
	      0.1542455
	      0.1354523
	      0.1354504
	      0.1542440
	      0.1160049
	      0.1143173
	      0.4541705
	      0.4721141
	      0.1299374
	      0.1327495
	      0.1711515
	      0.1542460
	      0.1542440
	      0.1711497
	      0.1327516
	      0.1299369
	      0.4720969
	      0.4509332
	      0.1089843
	      0.1030346
	      0.1327539
	      0.1160077
	      0.1160058
	      0.1327525
	      0.1030369
	      0.1089840
	      0.4509173
	      0.4654390
	      0.1199173
	      0.1089809
	      0.1299375
	      0.1143187
	      0.1143173
	      0.1299367
	      0.1089831
	      0.1199162
	      0.4654243
	      0.8140466
	      0.4654271
	      0.4509131
	      0.4720943
	      0.4541663
	      0.4541639
	      0.4720909
	      0.4509111
	      0.4654199
	      0.8140236
	      0.0669958
	      0.0513683
	      0.0506936
	      0.0552641
	      0.0557074
	      0.0557074
	      0.0552641
	      0.0506935
	      0.0513682
	      0.0669953
	      0.0513685
	      0.0511977
	      0.0498183
	      0.0596040
	      0.0589357
	      0.0589354
	      0.0596040
	      0.0498177
	      0.0511977
	      0.0513682
	      0.0506936
	      0.0498182
	      0.0429547
	      0.0507625
	      0.0489759
	      0.0489753
	      0.0507624
	      0.0429539
	      0.0498182
	      0.0506930
	      0.0552640
	      0.0596037
	      0.0507622
	      0.0577960
	      0.0559573
	      0.0559567
	      0.0577958
	      0.0507613
	      0.0596035
	      0.0552629
	      0.0557073
	      0.0589355
	      0.0489758
	      0.0559573
	      0.0543360
	      0.0543354
	      0.0559571
	      0.0489748
	      0.0589354
	      0.0557064
	      0.0557073
	      0.0589352
	      0.0489750
	      0.0559564
	      0.0543351
	      0.0543345
	      0.0559562
	      0.0489740
	      0.0589350
	      0.0557064
	      0.0552639
	      0.0596037
	      0.0507621
	      0.0577957
	      0.0559569
	      0.0559562
	      0.0577955
	      0.0507611
	      0.0596035
	      0.0552629
	      0.0506933
	      0.0498174
	      0.0429534
	      0.0507610
	      0.0489745
	      0.0489739
	      0.0507609
	      0.0429526
	      0.0498174
	      0.0506927
	      0.0513682
	      0.0511978
	      0.0498178
	      0.0596032
	      0.0589351
	      0.0589349
	      0.0596032
	      0.0498173
	      0.0511977
	      0.0513679
	      0.0669956
	      0.0513682
	      0.0506928
	      0.0552628
	      0.0557063
	      0.0557063
	      0.0552627
	      0.0506927
	      0.0513681
	      0.0669951
	      0.1520057
	      0.1116248
	      0.1016110
	      0.1010057
	      0.1005365
	      0.1005363
	      0.1010051
	      0.1016102
	      0.1116235
	      0.1520034
	      0.1116248
	      0.0860517
	      0.0802312
	      0.0800454
	      0.0790343
	      0.0790340
	      0.0800449
	      0.0802306
	      0.0860512
	      0.1116238
	      0.1016109
	      0.0802312
	      0.0832814
	      0.0814181
	      0.0846537
	      0.0846541
	      0.0814184
	      0.0832802
	      0.0802306
	      0.1016096
	      0.1010054
	      0.0800450
	      0.0814177
	      0.0783109
	      0.0818616
	      0.0818616
	      0.0783111
	      0.0814168
	      0.0800447
	      0.1010038
	      0.1005361
	      0.0790340
	      0.0846533
	      0.0818617
	      0.0857685
	      0.0857685
	      0.0818621
	      0.0846528
	      0.0790330
	      0.1005346
	      0.1005358
	      0.0790336
	      0.0846537
	      0.0818618
	      0.0857686
	      0.0857685
	      0.0818622
	      0.0846532
	      0.0790326
	      0.1005343
	      0.1010046
	      0.0800444
	      0.0814179
	      0.0783112
	      0.0818623
	      0.0818623
	      0.0783114
	      0.0814171
	      0.0800441
	      0.1010031
	      0.1016096
	      0.0802301
	      0.0832796
	      0.0814164
	      0.0846524
	      0.0846528
	      0.0814166
	      0.0832784
	      0.0802295
	      0.1016083
	      0.1116228
	      0.0860512
	      0.0802302
	      0.0800442
	      0.0790325
	      0.0790323
	      0.0800437
	      0.0802295
	      0.0860506
	      0.1116218
	      0.1520028
	      0.1116231
	      0.1016090
	      0.1010033
	      0.1005340
	      0.1005339
	      0.1010028
	      0.1016082
	      0.1116218
	      0.1520005
	      0.1453924
	      0.1146461
	      0.1091325
	      0.1090005
	      0.1090999
	      0.1090997
	      0.1090000
	      0.1091318
	      0.1146452
	      0.1453909
	      0.1146464
	      0.0922915
	      0.0888610
	      0.0873277
	      0.0871669
	      0.0871667
	      0.0873271
	      0.0888603
	      0.0922917
	      0.1146457
	      0.1091327
	      0.0888614
	      0.1000518
	      0.0995844
	      0.1052051
	      0.1052050
	      0.0995840
	      0.1000512
	      0.0888620
	      0.1091315
	      0.1090005
	      0.0873278
	      0.0995842
	      0.0948865
	      0.0997772
	      0.0997765
	      0.0948852
	      0.0995833
	      0.0873283
	      0.1089992
	      0.1090998
	      0.0871669
	      0.1052046
	      0.0997769
	      0.1058457
	      0.1058451
	      0.0997757
	      0.1052039
	      0.0871667
	      0.1090985
	      0.1090994
	      0.0871666
	      0.1052044
	      0.0997760
	      0.1058448
	      0.1058441
	      0.0997748
	      0.1052038
	      0.0871663
	      0.1090982
	      0.1089996
	      0.0873270
	      0.0995834
	      0.0948845
	      0.0997752
	      0.0997746
	      0.0948832
	      0.0995824
	      0.0873275
	      0.1089983
	      0.1091312
	      0.0888602
	      0.1000508
	      0.0995827
	      0.1052034
	      0.1052033
	      0.0995823
	      0.1000503
	      0.0888608
	      0.1091301
	      0.1146446
	      0.0922917
	      0.0888619
	      0.0873282
	      0.0871666
	      0.0871664
	      0.0873277
	      0.0888611
	      0.0922918
	      0.1146439
	      0.1453907
	      0.1146450
	      0.1091310
	      0.1089988
	      0.1090982
	      0.1090980
	      0.1089984
	      0.1091302
	      0.1146441
	      0.1453893
	      0.1201498
	      0.0996186
	      0.0976662
	      0.0991504
	      0.0994532
	      0.0994531
	      0.0991501
	      0.0976658
	      0.0996182
	      0.1201494
	      0.0996190
	      0.0788663
	      0.0814128
	      0.0822241
	      0.0835655
	      0.0835656
	      0.0822236
	      0.0814121
	      0.0788668
	      0.0996195
	      0.0976667
	      0.0814129
	      0.0865963
	      0.0878601
	      0.0911127
	      0.0911121
	      0.0878603
	      0.0865964
	      0.0814122
	      0.0976669
	      0.0991509
	      0.0822243
	      0.0878597
	      0.0855190
	      0.0880715
	      0.0880705
	      0.0855190
	      0.0878597
	      0.0822228
	      0.0991510
	      0.0994535
	      0.0835653
	      0.0911125
	      0.0880716
	      0.0932503
	      0.0932496
	      0.0880718
	      0.0911130
	      0.0835636
	      0.0994537
	      0.0994533
	      0.0835654
	      0.0911119
	      0.0880704
	      0.0932493
	      0.0932485
	      0.0880706
	      0.0911123
	      0.0835637
	      0.0994534
	      0.0991502
	      0.0822233
	      0.0878601
	      0.0855190
	      0.0880717
	      0.0880707
	      0.0855190
	      0.0878602
	      0.0822218
	      0.0991503
	      0.0976657
	      0.0814118
	      0.0865957
	      0.0878595
	      0.0911127
	      0.0911121
	      0.0878598
	      0.0865958
	      0.0814110
	      0.0976659
	      0.0996181
	      0.0788668
	      0.0814119
	      0.0822226
	      0.0835635
	      0.0835635
	      0.0822220
	      0.0814111
	      0.0788672
	      0.0996186
	      0.1201500
	      0.0996194
	      0.0976668
	      0.0991511
	      0.0994538
	      0.0994537
	      0.0991508
	      0.0976664
	      0.0996189
	      0.1201496
	      0.1201333
	      0.0995673
	      0.0976226
	      0.0990472
	      0.0992219
	      0.0992218
	      0.0990469
	      0.0976223
	      0.0995669
	      0.1201329
	      0.0995676
	      0.0795836
	      0.0794298
	      0.0798026
	      0.0801490
	      0.0801489
	      0.0798022
	      0.0794292
	      0.0795837
	      0.0995682
	      0.0976231
	      0.0794301
	      0.0859977
	      0.0891725
	      0.0936793
	      0.0936790
	      0.0891727
	      0.0859974
	      0.0794301
	      0.0976232
	      0.0990477
	      0.0798027
	      0.0891721
	      0.0899331
	      0.0943333
	      0.0943328
	      0.0899330
	      0.0891718
	      0.0798024
	      0.0990475
	      0.0992222
	      0.0801490
	      0.0936790
	      0.0943333
	      0.1012575
	      0.1012572
	      0.0943335
	      0.0936791
	      0.0801484
	      0.0992220
	      0.0992219
	      0.0801489
	      0.0936787
	      0.0943327
	      0.1012571
	      0.1012567
	      0.0943329
	      0.0936788
	      0.0801483
	      0.0992217
	      0.0990469
	      0.0798021
	      0.0891725
	      0.0899329
	      0.0943334
	      0.0943329
	      0.0899328
	      0.0891721
	      0.0798018
	      0.0990467
	      0.0976221
	      0.0794291
	      0.0859968
	      0.0891715
	      0.0936788
	      0.0936785
	      0.0891717
	      0.0859966
	      0.0794291
	      0.0976221
	      0.0995667
	      0.0795839
	      0.0794300
	      0.0798023
	      0.0801484
	      0.0801483
	      0.0798019
	      0.0794294
	      0.0795840
	      0.0995673
	      0.1201335
	      0.0995680
	      0.0976230
	      0.0990475
	      0.0992221
	      0.0992220
	      0.0990472
	      0.0976226
	      0.0995676
	      0.1201331
	      0.1453732
	      0.1145772
	      0.1090921
	      0.1088870
	      0.1088200
	      0.1088197
	      0.1088864
	      0.1090914
	      0.1145763
	      0.1453717
	      0.1145774
	      0.0923445
	      0.0895208
	      0.0882551
	      0.0873591
	      0.0873587
	      0.0882545
	      0.0895202
	      0.0923443
	      0.1145768
	      0.1090923
	      0.0895210
	      0.0996832
	      0.0992443
	      0.1055031
	      0.1055033
	      0.0992438
	      0.0996823
	      0.0895212
	      0.1090912
	      0.1088870
	      0.0882551
	      0.0992441
	      0.0947998
	      0.1003536
	      0.1003535
	      0.0947984
	      0.0992426
	      0.0882555
	      0.1088858
	      0.1088198
	      0.0873591
	      0.1055025
	      0.1003533
	      0.1064864
	      0.1064863
	      0.1003520
	      0.1055014
	      0.0873585
	      0.1088185
	      0.1088194
	      0.0873586
	      0.1055027
	      0.1003530
	      0.1064861
	      0.1064859
	      0.1003517
	      0.1055017
	      0.0873580
	      0.1088181
	      0.1088860
	      0.0882542
	      0.0992432
	      0.0947977
	      0.1003515
	      0.1003514
	      0.0947962
	      0.0992416
	      0.0882546
	      0.1088847
	      0.1090909
	      0.0895200
	      0.0996818
	      0.0992420
	      0.1055008
	      0.1055011
	      0.0992415
	      0.0996809
	      0.0895202
	      0.1090898
	      0.1145757
	      0.0923443
	      0.0895210
	      0.0882553
	      0.0873584
	      0.0873580
	      0.0882546
	      0.0895204
	      0.0923441
	      0.1145751
	      0.1453715
	      0.1145762
	      0.1090906
	      0.1088853
	      0.1088182
	      0.1088180
	      0.1088848
	      0.1090900
	      0.1145754
	      0.1453700
	      0.1522858
	      0.1117730
	      0.1017982
	      0.1011963
	      0.1006488
	      0.1006485
	      0.1011957
	      0.1017974
	      0.1117719
	      0.1522834
	      0.1117731
	      0.0853038
	      0.0819831
	      0.0824103
	      0.0819185
	      0.0819183
	      0.0824096
	      0.0819825
	      0.0853037
	      0.1117715
	      0.1017981
	      0.0819830
	      0.0838749
	      0.0796010
	      0.0822476
	      0.0822478
	      0.0796013
	      0.0838750
	      0.0819826
	      0.1017963
	      0.1011959
	      0.0824101
	      0.0796006
	      0.0731108
	      0.0755535
	      0.0755535
	      0.0731110
	      0.0796007
	      0.0824098
	      0.1011941
	      0.1006483
	      0.0819181
	      0.0822474
	      0.0755536
	      0.0778201
	      0.0778200
	      0.0755539
	      0.0822479
	      0.0819173
	      0.1006465
	      0.1006480
	      0.0819179
	      0.0822476
	      0.0755535
	      0.0778199
	      0.0778198
	      0.0755538
	      0.0822481
	      0.0819170
	      0.1006461
	      0.1011951
	      0.0824092
	      0.0796011
	      0.0731111
	      0.0755540
	      0.0755539
	      0.0731112
	      0.0796011
	      0.0824088
	      0.1011933
	      0.1017967
	      0.0819822
	      0.0838747
	      0.0796005
	      0.0822477
	      0.0822479
	      0.0796008
	      0.0838748
	      0.0819818
	      0.1017950
	      0.1117711
	      0.0853036
	      0.0819823
	      0.0824093
	      0.0819169
	      0.0819166
	      0.0824086
	      0.0819818
	      0.0853035
	      0.1117695
	      0.1522826
	      0.1117707
	      0.1017956
	      0.1011935
	      0.1006459
	      0.1006457
	      0.1011929
	      0.1017948
	      0.1117696
	      0.1522802
	      0.0680474
	      0.0520272
	      0.0513900
	      0.0559831
	      0.0562131
	      0.0562131
	      0.0559829
	      0.0513898
	      0.0520271
	      0.0680470
	      0.0520274
	      0.0508476
	      0.0488828
	      0.0585515
	      0.0576689
	      0.0576685
	      0.0585509
	      0.0488827
	      0.0508474
	      0.0520272
	      0.0513900
	      0.0488827
	      0.0413391
	      0.0509900
	      0.0503684
	      0.0503678
	      0.0509889
	      0.0413388
	      0.0488824
	      0.0513897
	      0.0559830
	      0.0585512
	      0.0509900
	      0.0618611
	      0.0624713
	      0.0624707
	      0.0618600
	      0.0509897
	      0.0585508
	      0.0559822
	      0.0562130
	      0.0576687
	      0.0503684
	      0.0624712
	      0.0642013
	      0.0642007
	      0.0624701
	      0.0503681
	      0.0576683
	      0.0562121
	      0.0562130
	      0.0576681
	      0.0503676
	      0.0624703
	      0.0642004
	      0.0641997
	      0.0624692
	      0.0503673
	      0.0576677
	      0.0562121
	      0.0559828
	      0.0585504
	      0.0509886
	      0.0618596
	      0.0624697
	      0.0624691
	      0.0618585
	      0.0509883
	      0.0585500
	      0.0559820
	      0.0513896
	      0.0488823
	      0.0413385
	      0.0509894
	      0.0503679
	      0.0503673
	      0.0509884
	      0.0413382
	      0.0488820
	      0.0513893
	      0.0520272
	      0.0508474
	      0.0488820
	      0.0585503
	      0.0576679
	      0.0576675
	      0.0585498
	      0.0488819
	      0.0508472
	      0.0520270
	      0.0680473
	      0.0520272
	      0.0513896
	      0.0559820
	      0.0562121
	      0.0562121
	      0.0559819
	      0.0513894
	      0.0520272
	      0.0680469
	      0.8133779
	      0.4641886
	      0.4464704
	      0.4675866
	      0.4503384
	      0.4503361
	      0.4675832
	      0.4464679
	      0.4641814
	      0.8133547
	      0.4641842
	      0.1244699
	      0.1109578
	      0.1317883
	      0.1166081
	      0.1166070
	      0.1317879
	      0.1109595
	      0.1244692
	      0.4641693
	      0.4464642
	      0.1109570
	      0.1022841
	      0.1315105
	      0.1154013
	      0.1153996
	      0.1315093
	      0.1022861
	      0.1109569
	      0.4464478
	      0.4675803
	      0.1317881
	      0.1315112
	      0.1695215
	      0.1538736
	      0.1538717
	      0.1695200
	      0.1315131
	      0.1317878
	      0.4675625
	      0.4503317
	      0.1166080
	      0.1154022
	      0.1538736
	      0.1370646
	      0.1370629
	      0.1538724
	      0.1154043
	      0.1166079
	      0.4503137
	      0.4503287
	      0.1166063
	      0.1153997
	      0.1538707
	      0.1370619
	      0.1370602
	      0.1538695
	      0.1154018
	      0.1166062
	      0.4503108
	      0.4675764
	      0.1317873
	      0.1315095
	      0.1695192
	      0.1538714
	      0.1538695
	      0.1695177
	      0.1315113
	      0.1317870
	      0.4675586
	      0.4464620
	      0.1109594
	      0.1022869
	      0.1315133
	      0.1154044
	      0.1154026
	      0.1315121
	      0.1022889
	      0.1109593
	      0.4464456
	      0.4641752
	      0.1244686
	      0.1109568
	      0.1317872
	      0.1166072
	      0.1166061
	      0.1317867
	      0.1109585
	      0.1244679
	      0.4641602
	      0.8133452
	      0.4641630
	      0.4464419
	      0.4675557
	      0.4503064
	      0.4503040
	      0.4675523
	      0.4464394
	      0.4641558
	      0.8133220
