# vtk DataFile Version 3.0
test_file
ASCII
DATASET POLYDATA
POINTS 1000 float
   0.95000 	   -0.00000 	    0.00000
   0.95000 	   -0.00000 	    1.00000
   0.95000 	    0.00000 	    2.00000
   0.95000 	    0.00000 	    3.00000
   0.95000 	    0.00000 	    4.00000
   0.95000 	    0.00000 	    5.00000
   0.95000 	    0.00000 	    6.00000
   0.95000 	    0.00000 	    7.00000
   0.95000 	   -0.00000 	    8.00000
   0.95000 	    0.00000 	    9.00000
   0.95000 	    1.00000 	    0.00000
   0.95000 	    1.00000 	    1.00000
   0.95000 	    1.00000 	    2.00000
   0.95000 	    1.00000 	    3.00000
   0.95000 	    1.00000 	    4.00000
   0.95000 	    1.00000 	    5.00000
   0.95000 	    1.00000 	    6.00000
   0.95000 	    1.00000 	    7.00000
   0.95000 	    1.00000 	    8.00000
   0.95000 	    1.00000 	    9.00000
   0.95000 	    2.00000 	    0.00000
   0.95000 	    2.00000 	    1.00000
   0.95000 	    2.00000 	    2.00000
   0.95000 	    2.00000 	    3.00000
   0.95000 	    2.00000 	    4.00000
   0.95000 	    2.00000 	    5.00000
   0.95000 	    2.00000 	    6.00000
   0.95000 	    2.00000 	    7.00000
   0.95000 	    2.00000 	    8.00000
   0.95000 	    2.00000 	    9.00000
   0.95000 	    3.00000 	    0.00000
   0.95000 	    3.00000 	    1.00000
   0.95000 	    3.00000 	    2.00000
   0.95000 	    3.00000 	    3.00000
   0.95000 	    3.00000 	    4.00000
   0.95000 	    3.00000 	    5.00000
   0.95000 	    3.00000 	    6.00000
   0.95000 	    3.00000 	    7.00000
   0.95000 	    3.00000 	    8.00000
   0.95000 	    3.00000 	    9.00000
   0.95000 	    4.00000 	    0.00000
   0.95000 	    4.00000 	    1.00000
   0.95000 	    4.00000 	    2.00000
   0.95000 	    4.00000 	    3.00000
   0.95000 	    4.00000 	    4.00000
   0.95000 	    4.00000 	    5.00000
   0.95000 	    4.00000 	    6.00000
   0.95000 	    4.00000 	    7.00000
   0.95000 	    4.00000 	    8.00000
   0.95000 	    4.00000 	    9.00000
   0.95000 	    5.00000 	    0.00000
   0.95000 	    5.00000 	    1.00000
   0.95000 	    5.00000 	    2.00000
   0.95000 	    5.00000 	    3.00000
   0.95000 	    5.00000 	    4.00000
   0.95000 	    5.00000 	    5.00000
   0.95000 	    5.00000 	    6.00000
   0.95000 	    5.00000 	    7.00000
   0.95000 	    5.00000 	    8.00000
   0.95000 	    5.00000 	    9.00000
   0.95000 	    6.00000 	    0.00000
   0.95000 	    6.00000 	    1.00000
   0.95000 	    6.00000 	    2.00000
   0.95000 	    6.00000 	    3.00000
   0.95000 	    6.00000 	    4.00000
   0.95000 	    6.00000 	    5.00000
   0.95000 	    6.00000 	    6.00000
   0.95000 	    6.00000 	    7.00000
   0.95000 	    6.00000 	    8.00000
   0.95000 	    6.00000 	    9.00000
   0.95000 	    7.00000 	    0.00000
   0.95000 	    7.00000 	    1.00000
   0.95000 	    7.00000 	    2.00000
   0.95000 	    7.00000 	    3.00000
   0.95000 	    7.00000 	    4.00000
   0.95000 	    7.00000 	    5.00000
   0.95000 	    7.00000 	    6.00000
   0.95000 	    7.00000 	    7.00000
   0.95000 	    7.00000 	    8.00000
   0.95000 	    7.00000 	    9.00000
   0.95000 	    8.00000 	    0.00000
   0.95000 	    8.00000 	    1.00000
   0.95000 	    8.00000 	    2.00000
   0.95000 	    8.00000 	    3.00000
   0.95000 	    8.00000 	    4.00000
   0.95000 	    8.00000 	    5.00000
   0.95000 	    8.00000 	    6.00000
   0.95000 	    8.00000 	    7.00000
   0.95000 	    8.00000 	    8.00000
   0.95000 	    8.00000 	    9.00000
   0.95000 	    9.00000 	    0.00000
   0.95000 	    9.00000 	    1.00000
   0.95000 	    9.00000 	    2.00000
   0.95000 	    9.00000 	    3.00000
   0.95000 	    9.00000 	    4.00000
   0.95000 	    9.00000 	    5.00000
   0.95000 	    9.00000 	    6.00000
   0.95000 	    9.00000 	    7.00000
   0.95000 	    9.00000 	    8.00000
   0.95000 	    9.00000 	    9.00000
   1.96707 	   -0.17982 	   -0.17982
   1.95426 	   -0.19411 	    0.90512
   1.95233 	   -0.19407 	    1.94849
   1.95942 	   -0.19982 	    2.95910
   1.95438 	   -0.19915 	    3.98467
   1.95437 	   -0.19915 	    5.01532
   1.95942 	   -0.19981 	    6.04089
   1.95233 	   -0.19407 	    7.05151
   1.95426 	   -0.19411 	    8.09487
   1.96707 	   -0.17981 	    9.17981
   1.95426 	    0.90512 	   -0.19411
   1.92209 	    0.87285 	    0.87286
   1.91093 	    0.88501 	    1.93285
   1.91445 	    0.88055 	    2.93771
   1.91275 	    0.88463 	    3.97612
   1.91275 	    0.88463 	    5.02387
   1.91445 	    0.88055 	    6.06228
   1.91093 	    0.88501 	    7.06714
   1.92209 	    0.87286 	    8.12714
   1.95426 	    0.90513 	    9.19411
   1.95233 	    1.94849 	   -0.19407
   1.91093 	    1.93285 	    0.88501
   1.91805 	    1.93689 	    1.93689
   1.91764 	    1.93708 	    2.92680
   1.91967 	    1.93773 	    3.97186
   1.91967 	    1.93773 	    5.02813
   1.91764 	    1.93708 	    6.07319
   1.91805 	    1.93689 	    7.06310
   1.91093 	    1.93285 	    8.11498
   1.95233 	    1.94849 	    9.19406
   1.95942 	    2.95910 	   -0.19981
   1.91445 	    2.93771 	    0.88055
   1.91764 	    2.92680 	    1.93709
   1.91483 	    2.92500 	    2.92500
   1.91678 	    2.92430 	    3.97149
   1.91678 	    2.92430 	    5.02850
   1.91483 	    2.92500 	    6.07499
   1.91764 	    2.92680 	    7.06291
   1.91445 	    2.93771 	    8.11944
   1.95942 	    2.95910 	    9.19981
   1.95438 	    3.98467 	   -0.19914
   1.91275 	    3.97611 	    0.88463
   1.91967 	    3.97185 	    1.93773
   1.91678 	    3.97148 	    2.92430
   1.91857 	    3.97141 	    3.97142
   1.91857 	    3.97141 	    5.02857
   1.91678 	    3.97148 	    6.07569
   1.91967 	    3.97185 	    7.06226
   1.91275 	    3.97611 	    8.11536
   1.95438 	    3.98467 	    9.19914
   1.95437 	    5.01532 	   -0.19914
   1.91275 	    5.02387 	    0.88463
   1.91967 	    5.02813 	    1.93773
   1.91678 	    5.02850 	    2.92430
   1.91857 	    5.02857 	    3.97142
   1.91857 	    5.02857 	    5.02857
   1.91678 	    5.02850 	    6.07569
   1.91967 	    5.02813 	    7.06226
   1.91275 	    5.02387 	    8.11536
   1.95438 	    5.01532 	    9.19914
   1.95942 	    6.04089 	   -0.19981
   1.91445 	    6.06228 	    0.88055
   1.91764 	    6.07318 	    1.93709
   1.91483 	    6.07499 	    2.92500
   1.91678 	    6.07568 	    3.97149
   1.91678 	    6.07568 	    5.02850
   1.91483 	    6.07499 	    6.07499
   1.91764 	    6.07318 	    7.06291
   1.91445 	    6.06228 	    8.11944
   1.95942 	    6.04089 	    9.19980
   1.95233 	    7.05151 	   -0.19406
   1.91093 	    7.06714 	    0.88501
   1.91805 	    7.06310 	    1.93690
   1.91764 	    7.06291 	    2.92681
   1.91967 	    7.06226 	    3.97186
   1.91967 	    7.06226 	    5.02813
   1.91764 	    7.06291 	    6.07318
   1.91805 	    7.06310 	    7.06310
   1.91093 	    7.06714 	    8.11498
   1.95233 	    7.05151 	    9.19406
   1.95426 	    8.09487 	   -0.19411
   1.92209 	    8.12713 	    0.87286
   1.91093 	    8.11498 	    1.93285
   1.91445 	    8.11944 	    2.93771
   1.91275 	    8.11536 	    3.97612
   1.91275 	    8.11536 	    5.02387
   1.91445 	    8.11944 	    6.06228
   1.91093 	    8.11498 	    7.06714
   1.92209 	    8.12713 	    8.12713
   1.95426 	    8.09487 	    9.19410
   1.96707 	    9.17981 	   -0.17981
   1.95426 	    9.19410 	    0.90513
   1.95233 	    9.19406 	    1.94849
   1.95942 	    9.19980 	    2.95910
   1.95438 	    9.19913 	    3.98467
   1.95438 	    9.19913 	    5.01532
   1.95942 	    9.19980 	    6.04089
   1.95233 	    9.19406 	    7.05151
   1.95426 	    9.19410 	    8.09487
   1.96707 	    9.17981 	    9.17981
   2.73534 	   -0.25873 	   -0.25873
   2.77525 	   -0.27211 	    0.80840
   2.78859 	   -0.28146 	    1.87347
   2.78885 	   -0.29081 	    2.92240
   2.78481 	   -0.29629 	    3.97461
   2.78481 	   -0.29629 	    5.02538
   2.78885 	   -0.29080 	    6.07759
   2.78859 	   -0.28145 	    7.12653
   2.77525 	   -0.27211 	    8.19160
   2.73534 	   -0.25872 	    9.25872
   2.77525 	    0.80840 	   -0.27211
   2.85901 	    0.78598 	    0.78598
   2.88687 	    0.77466 	    1.88080
   2.88692 	    0.76694 	    2.92881
   2.88126 	    0.75799 	    3.97741
   2.88126 	    0.75799 	    5.02258
   2.88692 	    0.76694 	    6.07118
   2.88687 	    0.77466 	    7.11919
   2.85901 	    0.78598 	    8.21401
   2.77526 	    0.80840 	    9.27210
   2.78859 	    1.87347 	   -0.28145
   2.88687 	    1.88080 	    0.77466
   2.90172 	    1.88282 	    1.88282
   2.89428 	    1.88044 	    2.92902
   2.88136 	    1.87056 	    3.97789
   2.88136 	    1.87056 	    5.02210
   2.89428 	    1.88044 	    6.07097
   2.90172 	    1.88282 	    7.11717
   2.88688 	    1.88081 	    8.22532
   2.78859 	    1.87347 	    9.28144
   2.78885 	    2.92240 	   -0.29080
   2.88692 	    2.92881 	    0.76694
   2.89428 	    2.92902 	    1.88045
   2.88480 	    2.92620 	    2.92620
   2.87097 	    2.92267 	    3.97629
   2.87097 	    2.92267 	    5.02370
   2.88480 	    2.92620 	    6.07379
   2.89428 	    2.92902 	    7.11954
   2.88692 	    2.92881 	    8.23304
   2.78885 	    2.92240 	    9.29079
   2.78481 	    3.97461 	   -0.29629
   2.88126 	    3.97741 	    0.75800
   2.88136 	    3.97789 	    1.87056
   2.87097 	    3.97629 	    2.92267
   2.85506 	    3.97480 	    3.97481
   2.85506 	    3.97480 	    5.02518
   2.87097 	    3.97629 	    6.07732
   2.88136 	    3.97789 	    7.12943
   2.88126 	    3.97741 	    8.24199
   2.78481 	    3.97461 	    9.29628
   2.78481 	    5.02538 	   -0.29629
   2.88126 	    5.02258 	    0.75800
   2.88136 	    5.02210 	    1.87056
   2.87097 	    5.02369 	    2.92267
   2.85506 	    5.02518 	    3.97481
   2.85506 	    5.02518 	    5.02518
   2.87097 	    5.02369 	    6.07732
   2.88136 	    5.02209 	    7.12943
   2.88126 	    5.02258 	    8.24199
   2.78481 	    5.02538 	    9.29628
   2.78885 	    6.07759 	   -0.29080
   2.88692 	    6.07118 	    0.76694
   2.89428 	    6.07097 	    1.88045
   2.88480 	    6.07378 	    2.92620
   2.87097 	    6.07731 	    3.97629
   2.87097 	    6.07731 	    5.02370
   2.88480 	    6.07378 	    6.07379
   2.89428 	    6.07096 	    7.11954
[...]
POINT_DATA 1000
SCALARS C float
LOOKUP_TABLE default
	      1.3764199
	      0.7777360
	      0.7863323
	      0.8180769
	      0.7763598
	      0.7763563
	      0.8180712
	      0.7863310
	      0.7777290
	      1.3763892
	      0.7777290
	      0.1157251
	      0.1262139
	      0.1726718
	      0.1378890
	      0.1378867
	      0.1726696
	      0.1262184
	      0.1157261
	      0.7777099
	      0.7863234
	      0.1262136
	      0.1411040
	      0.2085544
	      0.1693894
	      0.1693868
	      0.2085513
	      0.1411086
	      0.1262164
	      0.7863004
	      0.8180687
	      0.1726730
	      0.2085565
	      0.2939820
	      0.2519318
	      0.2519287
	      0.2939777
	      0.2085605
	      0.1726756
	      0.8180442
	      0.7763508
	      0.1378898
	      0.1693911
	      0.2519315
	      0.2044822
	      0.2044791
	      0.2519273
	      0.1693954
	      0.1378930
	      0.7763268
	      0.7763465
	      0.1378867
	      0.1693871
	      0.2519267
	      0.2044774
	      0.2044743
	      0.2519225
	      0.1693915
	      0.1378898
	      0.7763225
	      0.8180622
	      0.1726696
	      0.2085518
	      0.2939756
	      0.2519253
	      0.2519222
	      0.2939713
	      0.2085558
	      0.1726722
	      0.8180377
	      0.7863231
	      0.1262196
	      0.1411109
	      0.2085610
	      0.1693958
	      0.1693932
	      0.2085578
	      0.1411155
	      0.1262224
	      0.7863001
	      0.7777206
	      0.1157260
	      0.1262175
	      0.1726756
	      0.1378929
	      0.1378907
	      0.1726734
	      0.1262220
	      0.1157269
	      0.7777015
	      1.3763788
	      0.7777015
	      0.7862924
	      0.8180353
	      0.7763170
	      0.7763135
	      0.8180295
	      0.7862912
	      0.7776946
	      1.3763480
	      0.1077443
	      0.0827151
	      0.0829243
	      0.0909019
	      0.0916091
	      0.0916090
	      0.0909019
	      0.0829240
	      0.0827145
	      0.1077436
	      0.0827152
	      0.0914400
	      0.0928201
	      0.1086900
	      0.1077451
	      0.1077448
	      0.1086902
	      0.0928194
	      0.0914394
	      0.0827141
	      0.0829240
	      0.0928196
	      0.0763379
	      0.0911378
	      0.0875169
	      0.0875162
	      0.0911384
	      0.0763371
	      0.0928191
	      0.0829224
	      0.0909014
	      0.1086894
	      0.0911374
	      0.1074708
	      0.1040124
	      0.1040117
	      0.1074713
	      0.0911366
	      0.1086887
	      0.0908992
	      0.0916087
	      0.1077446
	      0.0875167
	      0.1040125
	      0.1002995
	      0.1002986
	      0.1040129
	      0.0875159
	      0.1077438
	      0.0916065
	      0.0916086
	      0.1077443
	      0.0875159
	      0.1040115
	      0.1002982
	      0.1002974
	      0.1040119
	      0.0875151
	      0.1077435
	      0.0916065
	      0.0909014
	      0.1086897
	      0.0911382
	      0.1074714
	      0.1040127
	      0.1040120
	      0.1074719
	      0.0911374
	      0.1086890
	      0.0908992
	      0.0829235
	      0.0928187
	      0.0763365
	      0.0911364
	      0.0875156
	      0.0875150
	      0.0911370
	      0.0763357
	      0.0928182
	      0.0829219
	      0.0827142
	      0.0914393
	      0.0928184
	      0.1086882
	      0.1077433
	      0.1077430
	      0.1086883
	      0.0928177
	      0.0914387
	      0.0827130
	      0.1077438
	      0.0827138
	      0.0829219
	      0.0908987
	      0.0916061
	      0.0916061
	      0.0908987
	      0.0829216
	      0.0827132
	      0.1077431
	      0.2377115
	      0.1757629
	      0.1599347
	      0.1584711
	      0.1573663
	      0.1573662
	      0.1584707
	      0.1599339
	      0.1757614
	      0.2377093
	      0.1757630
	      0.1443093
	      0.1371325
	      0.1369972
	      0.1360091
	      0.1360087
	      0.1369967
	      0.1371317
	      0.1443079
	      0.1757628
	      0.1599348
	      0.1371320
	      0.1258771
	      0.1193883
	      0.1288006
	      0.1288006
	      0.1193893
	      0.1258747
	      0.1371306
	      0.1599343
	      0.1584710
	      0.1369964
	      0.1193875
	      0.1111046
	      0.1217270
	      0.1217271
	      0.1111061
	      0.1193848
	      0.1369946
	      0.1584704
	      0.1573661
	      0.1360084
	      0.1288002
	      0.1217276
	      0.1327677
	      0.1327678
	      0.1217289
	      0.1287981
	      0.1360064
	      0.1573655
	      0.1573660
	      0.1360079
	      0.1287995
	      0.1217272
	      0.1327679
	      0.1327680
	      0.1217285
	      0.1287974
	      0.1360060
	      0.1573653
	      0.1584704
	      0.1369959
	      0.1193890
	      0.1111066
	      0.1217289
	      0.1217290
	      0.1111080
	      0.1193862
	      0.1369942
	      0.1584698
	      0.1599334
	      0.1371308
	      0.1258732
	      0.1193845
	      0.1287970
	      0.1287969
	      0.1193854
	      0.1258708
	      0.1371294
	      0.1599330
	      0.1757608
	      0.1443079
	      0.1371297
	      0.1369938
	      0.1360057
	      0.1360053
	      0.1369933
	      0.1371289
	      0.1443064
	      0.1757606
	      0.2377091
	      0.1757622
	      0.1599338
	      0.1584700
	      0.1573653
	      0.1573652
	      0.1584697
	      0.1599330
	      0.1757607
	      0.2377070
	      0.2229166
	      0.1781795
	      0.1696386
	      0.1689604
	      0.1689828
	      0.1689827
	      0.1689600
	      0.1696378
	      0.1781783
	      0.2229153
	      0.1781800
	      0.1467269
	      0.1420502
	      0.1389511
	      0.1378907
	      0.1378903
	      0.1389505
	      0.1420494
	      0.1467272
	      0.1781798
	      0.1696390
	      0.1420506
	      0.1804657
	      0.1724142
	      0.1910682
	      0.1910683
	      0.1724149
	      0.1804637
	      0.1420511
	      0.1696383
	      0.1689607
	      0.1389514
	      0.1724132
	      0.1473533
	      0.1656008
	      0.1656003
	      0.1473533
	      0.1724103
	      0.1389512
	      0.1689599
	      0.1689830
	      0.1378907
	      0.1910672
	      0.1656007
	      0.1872538
	      0.1872535
	      0.1656006
	      0.1910648
	      0.1378908
	      0.1689820
	      0.1689827
	      0.1378904
	      0.1910671
	      0.1655999
	      0.1872533
	      0.1872530
	      0.1655998
	      0.1910647
	      0.1378905
	      0.1689817
	      0.1689598
	      0.1389505
	      0.1724141
	      0.1473534
	      0.1656002
	      0.1655998
	      0.1473535
	      0.1724112
	      0.1389503
	      0.1689590
	      0.1696374
	      0.1420492
	      0.1804619
	      0.1724095
	      0.1910636
	      0.1910637
	      0.1724102
	      0.1804598
	      0.1420497
	      0.1696367
	      0.1781777
	      0.1467274
	      0.1420510
	      0.1389512
	      0.1378909
	      0.1378905
	      0.1389506
	      0.1420501
	      0.1467278
	      0.1781776
	      0.2229151
	      0.1781793
	      0.1696379
	      0.1689597
	      0.1689820
	      0.1689819
	      0.1689593
	      0.1696372
	      0.1781781
	      0.2229138
	      0.1765731
	      0.1530310
	      0.1515908
	      0.1545141
	      0.1553196
	      0.1553194
	      0.1545137
	      0.1515904
	      0.1530303
	      0.1765730
	      0.1530317
	      0.1239281
	      0.1240322
	      0.1237384
	      0.1226185
	      0.1226181
	      0.1237376
	      0.1240315
	      0.1239291
	      0.1530327
	      0.1515917
	      0.1240328
	      0.1629158
	      0.1584620
	      0.1732850
	      0.1732856
	      0.1584622
	      0.1629147
	      0.1240341
	      0.1515920
	      0.1545148
	      0.1237391
	      0.1584614
	      0.1331092
	      0.1477439
	      0.1477436
	      0.1331085
	      0.1584600
	      0.1237405
	      0.1545148
	      0.1553202
	      0.1226191
	      0.1732840
	      0.1477437
	      0.1693002
	      0.1692999
	      0.1477435
	      0.1732836
	      0.1226199
	      0.1553199
	      0.1553198
	      0.1226186
	      0.1732849
	      0.1477436
	      0.1693000
	      0.1692998
	      0.1477434
	      0.1732845
	      0.1226194
	      0.1553195
	      0.1545138
	      0.1237380
	      0.1584614
	      0.1331086
	      0.1477435
	      0.1477432
	      0.1331078
	      0.1584600
	      0.1237394
	      0.1545138
	      0.1515903
	      0.1240318
	      0.1629134
	      0.1584591
	      0.1732829
	      0.1732835
	      0.1584593
	      0.1629123
	      0.1240331
	      0.1515906
	      0.1530302
	      0.1239296
	      0.1240344
	      0.1237409
	      0.1226204
	      0.1226199
	      0.1237401
	      0.1240337
	      0.1239306
	      0.1530312
	      0.1765737
	      0.1530326
	      0.1515919
	      0.1545149
	      0.1553203
	      0.1553201
	      0.1545146
	      0.1515915
	      0.1530320
	      0.1765736
	      0.1765875
	      0.1530776
	      0.1516791
	      0.1546121
	      0.1554178
	      0.1554176
	      0.1546117
	      0.1516787
	      0.1530771
	      0.1765875
	      0.1530783
	      0.1240412
	      0.1245004
	      0.1243716
	      0.1232494
	      0.1232491
	      0.1243710
	      0.1244998
	      0.1240420
	      0.1530794
	      0.1516800
	      0.1245010
	      0.1627349
	      0.1578342
	      0.1731856
	      0.1731860
	      0.1578346
	      0.1627336
	      0.1245023
	      0.1516802
	      0.1546129
	      0.1243723
	      0.1578335
	      0.1320250
	      0.1472766
	      0.1472759
	      0.1320240
	      0.1578318
	      0.1243735
	      0.1546127
	      0.1554184
	      0.1232498
	      0.1731847
	      0.1472765
	      0.1692510
	      0.1692506
	      0.1472762
	      0.1731839
	      0.1232506
	      0.1554181
	      0.1554180
	      0.1232495
	      0.1731852
	      0.1472757
	      0.1692505
	      0.1692501
	      0.1472754
	      0.1731843
	      0.1232503
	      0.1554177
	      0.1546119
	      0.1243714
	      0.1578339
	      0.1320239
	      0.1472760
	      0.1472753
	      0.1320229
	      0.1578321
	      0.1243726
	      0.1546117
	      0.1516786
	      0.1245000
	      0.1627322
	      0.1578310
	      0.1731831
	      0.1731835
	      0.1578314
	      0.1627309
	      0.1245013
	      0.1516789
	      0.1530770
	      0.1240424
	      0.1245026
	      0.1243739
	      0.1232511
	      0.1232508
	      0.1243732
	      0.1245019
	      0.1240432
	      0.1530781
	      0.1765883
	      0.1530793
	      0.1516802
	      0.1546129
	      0.1554185
	      0.1554183
	      0.1546125
	      0.1516798
	      0.1530788
	      0.1765883
	      0.2230162
	      0.1782835
	      0.1697741
	      0.1690915
	      0.1691162
	      0.1691160
	      0.1690910
	      0.1697734
	      0.1782826
	      0.2230149
	      0.1782840
	      0.1467703
	      0.1422377
	      0.1391479
	      0.1380253
	      0.1380248
	      0.1391472
	      0.1422370
	      0.1467704
	      0.1782839
	      0.1697746
	      0.1422381
	      0.1792320
	      0.1715727
	      0.1904678
	      0.1904690
	      0.1715736
	      0.1792293
	      0.1422385
	      0.1697736
	      0.1690918
	      0.1391482
	      0.1715720
	      0.1469406
	      0.1654839
	      0.1654844
	      0.1469403
	      0.1715686
	      0.1391480
	      0.1690905
	      0.1691163
	      0.1380251
	      0.1904666
	      0.1654836
	      0.1873912
	      0.1873924
	      0.1654834
	      0.1904637
	      0.1380252
	      0.1691149
	      0.1691159
	      0.1380247
	      0.1904679
	      0.1654842
	      0.1873926
	      0.1873937
	      0.1654840
	      0.1904649
	      0.1380248
	      0.1691146
	      0.1690908
	      0.1391472
	      0.1715729
	      0.1469402
	      0.1654832
	      0.1654837
	      0.1469399
	      0.1715695
	      0.1391470
	      0.1690895
	      0.1697729
	      0.1422367
	      0.1792274
	      0.1715678
	      0.1904625
	      0.1904638
	      0.1715687
	      0.1792248
	      0.1422371
	      0.1697720
	      0.1782820
	      0.1467704
	      0.1422381
	      0.1391480
	      0.1380251
	      0.1380247
	      0.1391473
	      0.1422374
	      0.1467705
	      0.1782819
	      0.2230149
	      0.1782833
	      0.1697731
	      0.1690903
	      0.1691149
	      0.1691147
	      0.1690898
	      0.1697724
	      0.1782824
	      0.2230137
	      0.2381010
	      0.1760042
	      0.1601502
	      0.1586784
	      0.1575960
	      0.1575958
	      0.1586779
	      0.1601494
	      0.1760028
	      0.2380985
	      0.1760044
	      0.1442700
	      0.1368015
	      0.1364807
	      0.1354973
	      0.1354968
	      0.1364799
	      0.1368009
	      0.1442693
	      0.1760029
	      0.1601501
	      0.1368014
	      0.1269433
	      0.1211035
	      0.1295667
	      0.1295667
	      0.1211040
	      0.1269430
	      0.1368021
	      0.1601481
	      0.1586781
	      0.1364803
	      0.1211032
	      0.1134746
	      0.1226990
	      0.1226986
	      0.1134749
	      0.1211030
	      0.1364808
	      0.1586758
	      0.1575956
	      0.1354970
	      0.1295667
	      0.1226993
	      0.1324268
	      0.1324266
	      0.1226994
	      0.1295670
	      0.1354974
	      0.1575932
	      0.1575953
	      0.1354964
	      0.1295664
	      0.1226986
	      0.1324265
	      0.1324263
	      0.1226987
	      0.1295667
	      0.1354968
	      0.1575929
	      0.1586772
	      0.1364794
	      0.1211041
	      0.1134753
	      0.1226994
	      0.1226989
	      0.1134756
	      0.1211039
	      0.1364799
	      0.1586749
	      0.1601486
	      0.1368004
	      0.1269423
	      0.1211031
	      0.1295666
	      0.1295667
	      0.1211036
	      0.1269419
	      0.1368012
	      0.1601466
	      0.1760020
	      0.1442697
	      0.1368016
	      0.1364803
	      0.1354969
	      0.1354964
	      0.1364795
	      0.1368010
	      0.1442690
	      0.1760005
	      0.2380978
	      0.1760020
	      0.1601473
	      0.1586751
	      0.1575927
	      0.1575925
	      0.1586746
	      0.1601465
	      0.1760006
	      0.2380953
	      0.1081952
	      0.0829956
	      0.0832026
	      0.0912210
	      0.0919775
	      0.0919775
	      0.0912208
	      0.0832024
	      0.0829954
	      0.1081944
	      0.0829958
	      0.0914443
	      0.0927147
	      0.1086296
	      0.1077659
	      0.1077656
	      0.1086290
	      0.0927143
	      0.0914434
	      0.0829955
	      0.0832024
	      0.0927142
	      0.0758679
	      0.0903934
	      0.0868807
	      0.0868800
	      0.0903923
	      0.0758673
	      0.0927127
	      0.0832018
	      0.0912207
	      0.1086289
	      0.0903933
	      0.1062764
	      0.1030059
	      0.1030051
	      0.1062751
	      0.0903925
	      0.1086270
	      0.0912196
	      0.0919773
	      0.1077652
	      0.0868806
	      0.1030057
	      0.0995541
	      0.0995533
	      0.1030044
	      0.0868798
	      0.1077632
	      0.0919760
	      0.0919772
	      0.1077648
	      0.0868795
	      0.1030045
	      0.0995528
	      0.0995520
	      0.1030032
	      0.0868787
	      0.1077628
	      0.0919760
	      0.0912205
	      0.1086281
	      0.0903918
	      0.1062744
	      0.1030038
	      0.1030031
	      0.1062732
	      0.0903910
	      0.1086262
	      0.0912193
	      0.0832022
	      0.0927134
	      0.0758668
	      0.0903920
	      0.0868793
	      0.0868785
	      0.0903909
	      0.0758662
	      0.0927120
	      0.0832015
	      0.0829953
	      0.0914431
	      0.0927119
	      0.1086261
	      0.1077624
	      0.1077620
	      0.1086255
	      0.0927115
	      0.0914422
	      0.0829950
	      0.1081949
	      0.0829954
	      0.0832015
	      0.0912193
	      0.0919758
	      0.0919757
	      0.0912190
	      0.0832014
	      0.0829952
	      0.1081940
	      1.3761918
	      0.7776738
	      0.7862685
	      0.8184924
	      0.7768315
	      0.7768292
	      0.8184878
	      0.7862651
	      0.7776659
	      1.3761623
	      0.7776674
	      0.1167508
	      0.1268392
	      0.1733744
	      0.1386448
	      0.1386440
	      0.1733739
	      0.1268420
	      0.1167521
	      0.7776495
	      0.7862600
	      0.1268386
	      0.1408986
	      0.2084285
	      0.1692025
	      0.1692014
	      0.2084273
	      0.1409014
	      0.1268400
	      0.7862388
	      0.8184843
	      0.1733749
	      0.2084299
	      0.2942000
	      0.2522692
	      0.2522674
	      0.2941977
	      0.2084322
	      0.1733760
	      0.8184615
	      0.7768227
	      0.1386453
	      0.1692039
	      0.2522689
	      0.2052004
	      0.2051987
	      0.2522670
	      0.1692070
	      0.1386470
	      0.7768003
	      0.7768199
	      0.1386440
	      0.1692019
	      0.2522661
	      0.2051976
	      0.2051959
	      0.2522641
	      0.1692050
	      0.1386457
	      0.7767974
	      0.8184790
	      0.1733738
	      0.2084277
	      0.2941965
	      0.2522656
	      0.2522639
	      0.2941942
	      0.2084301
	      0.1733749
	      0.8184562
	      0.7862571
	      0.1268425
	      0.1409028
	      0.2084327
	      0.1692075
	      0.1692063
	      0.2084315
	      0.1409055
	      0.1268439
	      0.7862359
	      0.7776580
	      0.1167523
	      0.1268405
	      0.1733760
	      0.1386470
	      0.1386462
	      0.1733754
	      0.1268433
	      0.1167537
	      0.7776400
	      1.3761512
	      0.7776415
	      0.7862308
	      0.8184527
	      0.7767910
	      0.7767887
	      0.8184481
	      0.7862274
	      0.7776336
	      1.3761217
