# vtk DataFile Version 3.0
test_file
ASCII
DATASET POLYDATA
POINTS 1000 float
   0.02500 	   -0.00000 	    0.00000
   0.02500 	   -0.00000 	    1.00000
   0.02500 	    0.00000 	    2.00000
   0.02500 	    0.00000 	    3.00000
   0.02500 	    0.00000 	    4.00000
   0.02500 	    0.00000 	    5.00000
   0.02500 	    0.00000 	    6.00000
   0.02500 	    0.00000 	    7.00000
   0.02500 	   -0.00000 	    8.00000
   0.02500 	    0.00000 	    9.00000
   0.02500 	    1.00000 	    0.00000
   0.02500 	    1.00000 	    1.00000
   0.02500 	    1.00000 	    2.00000
   0.02500 	    1.00000 	    3.00000
   0.02500 	    1.00000 	    4.00000
   0.02500 	    1.00000 	    5.00000
   0.02500 	    1.00000 	    6.00000
   0.02500 	    1.00000 	    7.00000
   0.02500 	    1.00000 	    8.00000
   0.02500 	    1.00000 	    9.00000
   0.02500 	    2.00000 	    0.00000
   0.02500 	    2.00000 	    1.00000
   0.02500 	    2.00000 	    2.00000
   0.02500 	    2.00000 	    3.00000
   0.02500 	    2.00000 	    4.00000
   0.02500 	    2.00000 	    5.00000
   0.02500 	    2.00000 	    6.00000
   0.02500 	    2.00000 	    7.00000
   0.02500 	    2.00000 	    8.00000
   0.02500 	    2.00000 	    9.00000
   0.02500 	    3.00000 	    0.00000
   0.02500 	    3.00000 	    1.00000
   0.02500 	    3.00000 	    2.00000
   0.02500 	    3.00000 	    3.00000
   0.02500 	    3.00000 	    4.00000
   0.02500 	    3.00000 	    5.00000
   0.02500 	    3.00000 	    6.00000
   0.02500 	    3.00000 	    7.00000
   0.02500 	    3.00000 	    8.00000
   0.02500 	    3.00000 	    9.00000
   0.02500 	    4.00000 	    0.00000
   0.02500 	    4.00000 	    1.00000
   0.02500 	    4.00000 	    2.00000
   0.02500 	    4.00000 	    3.00000
   0.02500 	    4.00000 	    4.00000
   0.02500 	    4.00000 	    5.00000
   0.02500 	    4.00000 	    6.00000
   0.02500 	    4.00000 	    7.00000
   0.02500 	    4.00000 	    8.00000
   0.02500 	    4.00000 	    9.00000
   0.02500 	    5.00000 	    0.00000
   0.02500 	    5.00000 	    1.00000
   0.02500 	    5.00000 	    2.00000
   0.02500 	    5.00000 	    3.00000
   0.02500 	    5.00000 	    4.00000
   0.02500 	    5.00000 	    5.00000
   0.02500 	    5.00000 	    6.00000
   0.02500 	    5.00000 	    7.00000
   0.02500 	    5.00000 	    8.00000
   0.02500 	    5.00000 	    9.00000
   0.02500 	    6.00000 	    0.00000
   0.02500 	    6.00000 	    1.00000
   0.02500 	    6.00000 	    2.00000
   0.02500 	    6.00000 	    3.00000
   0.02500 	    6.00000 	    4.00000
   0.02500 	    6.00000 	    5.00000
   0.02500 	    6.00000 	    6.00000
   0.02500 	    6.00000 	    7.00000
   0.02500 	    6.00000 	    8.00000
   0.02500 	    6.00000 	    9.00000
   0.02500 	    7.00000 	    0.00000
   0.02500 	    7.00000 	    1.00000
   0.02500 	    7.00000 	    2.00000
   0.02500 	    7.00000 	    3.00000
   0.02500 	    7.00000 	    4.00000
   0.02500 	    7.00000 	    5.00000
   0.02500 	    7.00000 	    6.00000
   0.02500 	    7.00000 	    7.00000
   0.02500 	    7.00000 	    8.00000
   0.02500 	    7.00000 	    9.00000
   0.02500 	    8.00000 	    0.00000
   0.02500 	    8.00000 	    1.00000
   0.02500 	    8.00000 	    2.00000
   0.02500 	    8.00000 	    3.00000
   0.02500 	    8.00000 	    4.00000
   0.02500 	    8.00000 	    5.00000
   0.02500 	    8.00000 	    6.00000
   0.02500 	    8.00000 	    7.00000
   0.02500 	    8.00000 	    8.00000
   0.02500 	    8.00000 	    9.00000
   0.02500 	    9.00000 	    0.00000
   0.02500 	    9.00000 	    1.00000
   0.02500 	    9.00000 	    2.00000
   0.02500 	    9.00000 	    3.00000
   0.02500 	    9.00000 	    4.00000
   0.02500 	    9.00000 	    5.00000
   0.02500 	    9.00000 	    6.00000
   0.02500 	    9.00000 	    7.00000
   0.02500 	    9.00000 	    8.00000
   0.02500 	    9.00000 	    9.00000
   1.01779 	   -0.00457 	   -0.00457
   1.01698 	   -0.00559 	    0.99809
   1.01707 	   -0.00581 	    1.99952
   1.01748 	   -0.00595 	    2.99973
   1.01760 	   -0.00604 	    3.99986
   1.01760 	   -0.00604 	    5.00014
   1.01748 	   -0.00595 	    6.00027
   1.01707 	   -0.00581 	    7.00048
   1.01698 	   -0.00559 	    8.00191
   1.01779 	   -0.00457 	    9.00457
   1.01698 	    0.99809 	   -0.00559
   1.01233 	    0.99692 	    0.99692
   1.01218 	    0.99673 	    1.99954
   1.01320 	    0.99676 	    2.99978
   1.01349 	    0.99674 	    3.99983
   1.01349 	    0.99674 	    5.00017
   1.01320 	    0.99676 	    6.00022
   1.01218 	    0.99673 	    7.00046
   1.01233 	    0.99692 	    8.00308
   1.01698 	    0.99809 	    9.00559
   1.01707 	    1.99952 	   -0.00581
   1.01218 	    1.99954 	    0.99673
   1.01204 	    1.99952 	    1.99952
   1.01321 	    1.99957 	    2.99976
   1.01352 	    1.99958 	    3.99982
   1.01352 	    1.99958 	    5.00018
   1.01321 	    1.99957 	    6.00024
   1.01204 	    1.99952 	    7.00048
   1.01218 	    1.99954 	    8.00327
   1.01707 	    1.99952 	    9.00581
   1.01748 	    2.99973 	   -0.00595
   1.01320 	    2.99978 	    0.99676
   1.01321 	    2.99976 	    1.99957
   1.01431 	    2.99977 	    2.99977
   1.01457 	    2.99977 	    3.99982
   1.01457 	    2.99977 	    5.00018
   1.01431 	    2.99977 	    6.00023
   1.01321 	    2.99976 	    7.00043
   1.01320 	    2.99978 	    8.00324
   1.01748 	    2.99973 	    9.00595
   1.01760 	    3.99986 	   -0.00604
   1.01349 	    3.99983 	    0.99674
   1.01352 	    3.99982 	    1.99958
   1.01457 	    3.99982 	    2.99977
   1.01480 	    3.99982 	    3.99982
   1.01480 	    3.99982 	    5.00018
   1.01457 	    3.99982 	    6.00023
   1.01352 	    3.99982 	    7.00042
   1.01349 	    3.99983 	    8.00326
   1.01760 	    3.99986 	    9.00604
   1.01760 	    5.00014 	   -0.00604
   1.01349 	    5.00017 	    0.99674
   1.01352 	    5.00018 	    1.99958
   1.01457 	    5.00018 	    2.99977
   1.01480 	    5.00018 	    3.99982
   1.01480 	    5.00018 	    5.00018
   1.01457 	    5.00018 	    6.00023
   1.01352 	    5.00018 	    7.00042
   1.01349 	    5.00017 	    8.00326
   1.01760 	    5.00014 	    9.00604
   1.01748 	    6.00027 	   -0.00595
   1.01320 	    6.00022 	    0.99676
   1.01321 	    6.00024 	    1.99957
   1.01431 	    6.00023 	    2.99977
   1.01457 	    6.00023 	    3.99982
   1.01457 	    6.00023 	    5.00018
   1.01431 	    6.00023 	    6.00023
   1.01321 	    6.00024 	    7.00043
   1.01320 	    6.00022 	    8.00324
   1.01748 	    6.00027 	    9.00595
   1.01707 	    7.00048 	   -0.00581
   1.01218 	    7.00046 	    0.99673
   1.01204 	    7.00048 	    1.99952
   1.01321 	    7.00043 	    2.99976
   1.01352 	    7.00042 	    3.99982
   1.01352 	    7.00042 	    5.00018
   1.01321 	    7.00043 	    6.00024
   1.01204 	    7.00048 	    7.00048
   1.01218 	    7.00046 	    8.00327
   1.01707 	    7.00048 	    9.00581
   1.01698 	    8.00191 	   -0.00559
   1.01233 	    8.00308 	    0.99692
   1.01218 	    8.00327 	    1.99954
   1.01320 	    8.00324 	    2.99978
   1.01349 	    8.00326 	    3.99983
   1.01349 	    8.00326 	    5.00017
   1.01320 	    8.00324 	    6.00022
   1.01218 	    8.00327 	    7.00046
   1.01233 	    8.00308 	    8.00308
   1.01698 	    8.00191 	    9.00559
   1.01779 	    9.00457 	   -0.00457
   1.01698 	    9.00559 	    0.99809
   1.01707 	    9.00581 	    1.99952
   1.01748 	    9.00595 	    2.99973
   1.01760 	    9.00604 	    3.99986
   1.01760 	    9.00604 	    5.00014
   1.01748 	    9.00595 	    6.00027
   1.01707 	    9.00581 	    7.00048
   1.01698 	    9.00559 	    8.00191
   1.01779 	    9.00457 	    9.00457
   2.01571 	   -0.00343 	   -0.00343
   2.01646 	   -0.00387 	    0.99799
   2.01644 	   -0.00409 	    1.99904
   2.01649 	   -0.00427 	    2.99945
   2.01655 	   -0.00440 	    3.99979
   2.01655 	   -0.00440 	    5.00021
   2.01649 	   -0.00427 	    6.00055
   2.01644 	   -0.00409 	    7.00096
   2.01646 	   -0.00387 	    8.00201
   2.01571 	   -0.00343 	    9.00343
   2.01646 	    0.99799 	   -0.00387
   2.01845 	    0.99736 	    0.99736
   2.01855 	    0.99724 	    1.99901
   2.01869 	    0.99727 	    2.99938
   2.01880 	    0.99720 	    3.99973
   2.01880 	    0.99720 	    5.00027
   2.01869 	    0.99727 	    6.00062
   2.01855 	    0.99724 	    7.00099
   2.01845 	    0.99736 	    8.00264
   2.01646 	    0.99799 	    9.00387
   2.01644 	    1.99904 	   -0.00409
   2.01855 	    1.99901 	    0.99724
   2.01866 	    1.99899 	    1.99899
   2.01886 	    1.99902 	    2.99935
   2.01898 	    1.99902 	    3.99972
   2.01898 	    1.99902 	    5.00028
   2.01886 	    1.99902 	    6.00065
   2.01866 	    1.99899 	    7.00101
   2.01855 	    1.99901 	    8.00276
   2.01644 	    1.99904 	    9.00409
   2.01649 	    2.99945 	   -0.00427
   2.01869 	    2.99938 	    0.99727
   2.01886 	    2.99935 	    1.99902
   2.01904 	    2.99935 	    2.99935
   2.01914 	    2.99935 	    3.99971
   2.01914 	    2.99935 	    5.00029
   2.01904 	    2.99935 	    6.00065
   2.01886 	    2.99935 	    7.00098
   2.01869 	    2.99938 	    8.00273
   2.01649 	    2.99945 	    9.00427
   2.01655 	    3.99979 	   -0.00440
   2.01880 	    3.99973 	    0.99720
   2.01898 	    3.99972 	    1.99902
   2.01914 	    3.99971 	    2.99935
   2.01921 	    3.99971 	    3.99971
   2.01921 	    3.99971 	    5.00029
   2.01914 	    3.99971 	    6.00065
   2.01898 	    3.99972 	    7.00098
   2.01880 	    3.99973 	    8.00280
   2.01655 	    3.99979 	    9.00440
   2.01655 	    5.00021 	   -0.00440
   2.01880 	    5.00027 	    0.99720
   2.01898 	    5.00028 	    1.99902
   2.01914 	    5.00029 	    2.99935
   2.01921 	    5.00029 	    3.99971
   2.01921 	    5.00029 	    5.00029
   2.01914 	    5.00029 	    6.00065
   2.01898 	    5.00028 	    7.00098
   2.01880 	    5.00027 	    8.00280
   2.01655 	    5.00021 	    9.00440
   2.01649 	    6.00055 	   -0.00427
   2.01869 	    6.00062 	    0.99727
   2.01886 	    6.00065 	    1.99902
   2.01904 	    6.00065 	    2.99935
   2.01914 	    6.00065 	    3.99971
   2.01914 	    6.00065 	    5.00029
   2.01904 	    6.00065 	    6.00065
   2.01886 	    6.00065 	    7.00098
[...]
POINT_DATA 1000
SCALARS C float
LOOKUP_TABLE default
	      0.4484343
	      0.3286633
	      0.3137770
	      0.3138024
	      0.3114784
	      0.3114784
	      0.3138027
	      0.3137774
	      0.3286629
	      0.4484322
	      0.3286630
	      0.2410696
	      0.2341124
	      0.2340380
	      0.2315875
	      0.2315876
	      0.2340383
	      0.2341127
	      0.2410694
	      0.3286614
	      0.3137766
	      0.2341122
	      0.2292300
	      0.2296004
	      0.2272056
	      0.2272056
	      0.2296007
	      0.2292304
	      0.2341121
	      0.3137749
	      0.3138019
	      0.2340378
	      0.2296003
	      0.2305954
	      0.2285656
	      0.2285656
	      0.2305957
	      0.2296007
	      0.2340376
	      0.3138002
	      0.3114780
	      0.2315874
	      0.2272056
	      0.2285656
	      0.2268539
	      0.2268540
	      0.2285660
	      0.2272060
	      0.2315872
	      0.3114762
	      0.3114780
	      0.2315874
	      0.2272057
	      0.2285657
	      0.2268540
	      0.2268541
	      0.2285661
	      0.2272061
	      0.2315873
	      0.3114763
	      0.3138023
	      0.2340381
	      0.2296007
	      0.2305958
	      0.2285660
	      0.2285661
	      0.2305962
	      0.2296012
	      0.2340380
	      0.3138005
	      0.3137769
	      0.2341126
	      0.2292304
	      0.2296008
	      0.2272060
	      0.2272061
	      0.2296011
	      0.2292307
	      0.2341124
	      0.3137753
	      0.3286624
	      0.2410691
	      0.2341119
	      0.2340375
	      0.2315871
	      0.2315872
	      0.2340378
	      0.2341123
	      0.2410689
	      0.3286608
	      0.4484317
	      0.3286609
	      0.3137745
	      0.3137998
	      0.3114758
	      0.3114758
	      0.3138000
	      0.3137748
	      0.3286606
	      0.4484297
	      0.0516494
	      0.0359884
	      0.0410659
	      0.0493478
	      0.0513503
	      0.0513503
	      0.0493479
	      0.0410662
	      0.0359885
	      0.0516478
	      0.0359885
	      0.0189012
	      0.0258750
	      0.0398724
	      0.0430383
	      0.0430383
	      0.0398725
	      0.0258753
	      0.0189018
	      0.0359869
	      0.0410657
	      0.0258750
	      0.0328226
	      0.0477590
	      0.0510986
	      0.0510986
	      0.0477592
	      0.0328230
	      0.0258755
	      0.0410640
	      0.0493474
	      0.0398724
	      0.0477590
	      0.0623210
	      0.0654623
	      0.0654623
	      0.0623211
	      0.0477594
	      0.0398729
	      0.0493456
	      0.0513500
	      0.0430384
	      0.0510986
	      0.0654623
	      0.0684448
	      0.0684448
	      0.0654625
	      0.0510990
	      0.0430389
	      0.0513481
	      0.0513500
	      0.0430384
	      0.0510986
	      0.0654623
	      0.0684448
	      0.0684448
	      0.0654625
	      0.0510990
	      0.0430389
	      0.0513481
	      0.0493475
	      0.0398726
	      0.0477592
	      0.0623212
	      0.0654626
	      0.0654626
	      0.0623214
	      0.0477596
	      0.0398731
	      0.0493457
	      0.0410659
	      0.0258754
	      0.0328231
	      0.0477594
	      0.0510991
	      0.0510991
	      0.0477596
	      0.0328234
	      0.0258759
	      0.0410641
	      0.0359882
	      0.0189020
	      0.0258756
	      0.0398730
	      0.0430390
	      0.0430390
	      0.0398731
	      0.0258760
	      0.0189025
	      0.0359865
	      0.0516473
	      0.0359866
	      0.0410637
	      0.0493453
	      0.0513478
	      0.0513478
	      0.0493454
	      0.0410640
	      0.0359866
	      0.0516458
	      0.1207382
	      0.0918678
	      0.0924278
	      0.0985312
	      0.1003335
	      0.1003335
	      0.0985312
	      0.0924280
	      0.0918678
	      0.1207373
	      0.0918678
	      0.0709634
	      0.0735128
	      0.0805438
	      0.0832138
	      0.0832138
	      0.0805439
	      0.0735130
	      0.0709635
	      0.0918669
	      0.0924277
	      0.0735128
	      0.0765617
	      0.0840711
	      0.0872460
	      0.0872460
	      0.0840712
	      0.0765619
	      0.0735129
	      0.0924267
	      0.0985310
	      0.0805438
	      0.0840711
	      0.0922229
	      0.0955974
	      0.0955974
	      0.0922230
	      0.0840713
	      0.0805438
	      0.0985300
	      0.1003333
	      0.0832138
	      0.0872460
	      0.0955974
	      0.0989434
	      0.0989434
	      0.0955976
	      0.0872463
	      0.0832138
	      0.1003322
	      0.1003333
	      0.0832137
	      0.0872460
	      0.0955974
	      0.0989434
	      0.0989434
	      0.0955976
	      0.0872463
	      0.0832138
	      0.1003322
	      0.0985310
	      0.0805439
	      0.0840713
	      0.0922231
	      0.0955976
	      0.0955976
	      0.0922232
	      0.0840715
	      0.0805440
	      0.0985300
	      0.0924277
	      0.0735130
	      0.0765620
	      0.0840714
	      0.0872463
	      0.0872463
	      0.0840715
	      0.0765622
	      0.0735131
	      0.0924268
	      0.0918675
	      0.0709635
	      0.0735129
	      0.0805438
	      0.0832138
	      0.0832138
	      0.0805439
	      0.0735131
	      0.0709636
	      0.0918667
	      0.1207370
	      0.0918667
	      0.0924265
	      0.0985297
	      0.1003320
	      0.1003320
	      0.0985298
	      0.0924266
	      0.0918666
	      0.1207361
	      0.1457661
	      0.1151505
	      0.1153138
	      0.1201613
	      0.1215697
	      0.1215697
	      0.1201614
	      0.1153139
	      0.1151504
	      0.1457653
	      0.1151505
	      0.0952060
	      0.0958481
	      0.1010849
	      0.1028376
	      0.1028376
	      0.1010850
	      0.0958482
	      0.0952060
	      0.1151499
	      0.1153137
	      0.0958481
	      0.0966575
	      0.1026146
	      0.1047812
	      0.1047812
	      0.1026147
	      0.0966576
	      0.0958481
	      0.1153131
	      0.1201612
	      0.1010849
	      0.1026146
	      0.1091685
	      0.1114663
	      0.1114663
	      0.1091686
	      0.1026148
	      0.1010849
	      0.1201606
	      0.1215696
	      0.1028376
	      0.1047812
	      0.1114663
	      0.1137192
	      0.1137192
	      0.1114664
	      0.1047813
	      0.1028376
	      0.1215689
	      0.1215696
	      0.1028376
	      0.1047812
	      0.1114663
	      0.1137192
	      0.1137192
	      0.1114664
	      0.1047813
	      0.1028376
	      0.1215689
	      0.1201612
	      0.1010849
	      0.1026147
	      0.1091686
	      0.1114664
	      0.1114664
	      0.1091687
	      0.1026148
	      0.1010850
	      0.1201606
	      0.1153137
	      0.0958482
	      0.0966576
	      0.1026148
	      0.1047813
	      0.1047813
	      0.1026149
	      0.0966578
	      0.0958483
	      0.1153132
	      0.1151503
	      0.0952060
	      0.0958481
	      0.1010849
	      0.1028376
	      0.1028376
	      0.1010850
	      0.0958482
	      0.0952061
	      0.1151497
	      0.1457652
	      0.1151498
	      0.1153130
	      0.1201604
	      0.1215688
	      0.1215688
	      0.1201605
	      0.1153131
	      0.1151497
	      0.1457644
	      0.1206875
	      0.0933505
	      0.0924288
	      0.0959999
	      0.0973232
	      0.0973232
	      0.0959999
	      0.0924289
	      0.0933504
	      0.1206868
	      0.0933505
	      0.0756637
	      0.0750469
	      0.0783602
	      0.0795441
	      0.0795441
	      0.0783602
	      0.0750470
	      0.0756638
	      0.0933500
	      0.0924287
	      0.0750469
	      0.0744613
	      0.0781392
	      0.0794792
	      0.0794792
	      0.0781393
	      0.0744614
	      0.0750469
	      0.0924281
	      0.0959997
	      0.0783602
	      0.0781392
	      0.0821371
	      0.0835363
	      0.0835363
	      0.0821372
	      0.0781393
	      0.0783602
	      0.0959991
	      0.0973230
	      0.0795441
	      0.0794792
	      0.0835363
	      0.0849227
	      0.0849227
	      0.0835363
	      0.0794794
	      0.0795441
	      0.0973224
	      0.0973230
	      0.0795441
	      0.0794793
	      0.0835363
	      0.0849227
	      0.0849227
	      0.0835363
	      0.0794794
	      0.0795441
	      0.0973224
	      0.0959998
	      0.0783602
	      0.0781393
	      0.0821372
	      0.0835363
	      0.0835363
	      0.0821373
	      0.0781394
	      0.0783603
	      0.0959992
	      0.0924287
	      0.0750470
	      0.0744614
	      0.0781393
	      0.0794794
	      0.0794794
	      0.0781394
	      0.0744615
	      0.0750470
	      0.0924281
	      0.0933503
	      0.0756638
	      0.0750469
	      0.0783602
	      0.0795441
	      0.0795441
	      0.0783602
	      0.0750470
	      0.0756638
	      0.0933497
	      0.1206866
	      0.0933498
	      0.0924280
	      0.0959990
	      0.0973222
	      0.0973223
	      0.0959990
	      0.0924280
	      0.0933497
	      0.1206859
	      0.1025274
	      0.0769453
	      0.0745176
	      0.0771317
	      0.0786172
	      0.0786172
	      0.0771318
	      0.0745176
	      0.0769452
	      0.1025268
	      0.0769453
	      0.0584701
	      0.0564470
	      0.0586359
	      0.0598867
	      0.0598867
	      0.0586360
	      0.0564471
	      0.0584701
	      0.0769448
	      0.0745175
	      0.0564470
	      0.0544691
	      0.0567934
	      0.0581248
	      0.0581248
	      0.0567934
	      0.0544691
	      0.0564470
	      0.0745171
	      0.0771316
	      0.0586359
	      0.0567933
	      0.0593298
	      0.0607451
	      0.0607451
	      0.0593299
	      0.0567934
	      0.0586359
	      0.0771311
	      0.0786171
	      0.0598867
	      0.0581248
	      0.0607451
	      0.0621890
	      0.0621890
	      0.0607452
	      0.0581248
	      0.0598867
	      0.0786166
	      0.0786171
	      0.0598867
	      0.0581248
	      0.0607451
	      0.0621890
	      0.0621890
	      0.0607452
	      0.0581248
	      0.0598867
	      0.0786166
	      0.0771317
	      0.0586359
	      0.0567934
	      0.0593299
	      0.0607452
	      0.0607452
	      0.0593299
	      0.0567935
	      0.0586359
	      0.0771311
	      0.0745175
	      0.0564470
	      0.0544691
	      0.0567934
	      0.0581248
	      0.0581248
	      0.0567935
	      0.0544692
	      0.0564470
	      0.0745170
	      0.0769450
	      0.0584700
	      0.0564469
	      0.0586358
	      0.0598866
	      0.0598866
	      0.0586359
	      0.0564470
	      0.0584700
	      0.0769446
	      0.1025266
	      0.0769446
	      0.0745169
	      0.0771310
	      0.0786164
	      0.0786165
	      0.0771310
	      0.0745169
	      0.0769445
	      0.1025260
	      0.0959520
	      0.0713828
	      0.0683743
	      0.0704795
	      0.0718651
	      0.0718651
	      0.0704795
	      0.0683743
	      0.0713827
	      0.0959516
	      0.0713827
	      0.0532086
	      0.0507008
	      0.0525200
	      0.0537651
	      0.0537651
	      0.0525201
	      0.0507008
	      0.0532085
	      0.0713824
	      0.0683742
	      0.0507007
	      0.0483080
	      0.0502716
	      0.0516040
	      0.0516040
	      0.0502716
	      0.0483080
	      0.0507007
	      0.0683739
	      0.0704794
	      0.0525200
	      0.0502716
	      0.0524387
	      0.0538527
	      0.0538527
	      0.0524388
	      0.0502716
	      0.0525200
	      0.0704791
	      0.0718650
	      0.0537651
	      0.0516040
	      0.0538527
	      0.0552879
	      0.0552879
	      0.0538527
	      0.0516040
	      0.0537650
	      0.0718647
	      0.0718650
	      0.0537651
	      0.0516040
	      0.0538527
	      0.0552879
	      0.0552879
	      0.0538527
	      0.0516040
	      0.0537650
	      0.0718647
	      0.0704794
	      0.0525200
	      0.0502716
	      0.0524388
	      0.0538527
	      0.0538527
	      0.0524388
	      0.0502716
	      0.0525200
	      0.0704791
	      0.0683742
	      0.0507007
	      0.0483080
	      0.0502716
	      0.0516040
	      0.0516040
	      0.0502716
	      0.0483081
	      0.0507007
	      0.0683739
	      0.0713826
	      0.0532085
	      0.0507007
	      0.0525199
	      0.0537650
	      0.0537650
	      0.0525200
	      0.0507007
	      0.0532084
	      0.0713822
	      0.0959514
	      0.0713823
	      0.0683738
	      0.0704790
	      0.0718646
	      0.0718646
	      0.0704790
	      0.0683738
	      0.0713822
	      0.0959510
	      0.0834626
	      0.0611709
	      0.0577241
	      0.0591435
	      0.0602441
	      0.0602441
	      0.0591435
	      0.0577241
	      0.0611708
	      0.0834623
	      0.0611708
	      0.0453536
	      0.0425366
	      0.0437333
	      0.0447130
	      0.0447130
	      0.0437333
	      0.0425366
	      0.0453536
	      0.0611706
	      0.0577241
	      0.0425366
	      0.0397978
	      0.0410650
	      0.0420999
	      0.0420999
	      0.0410651
	      0.0397978
	      0.0425365
	      0.0577239
	      0.0591434
	      0.0437333
	      0.0410650
	      0.0424586
	      0.0435445
	      0.0435445
	      0.0424586
	      0.0410650
	      0.0437333
	      0.0591432
	      0.0602440
	      0.0447130
	      0.0420999
	      0.0435445
	      0.0446373
	      0.0446373
	      0.0435445
	      0.0420999
	      0.0447130
	      0.0602438
	      0.0602440
	      0.0447130
	      0.0420999
	      0.0435445
	      0.0446373
	      0.0446373
	      0.0435445
	      0.0420999
	      0.0447130
	      0.0602438
	      0.0591434
	      0.0437333
	      0.0410650
	      0.0424586
	      0.0435445
	      0.0435445
	      0.0424586
	      0.0410650
	      0.0437333
	      0.0591432
	      0.0577241
	      0.0425366
	      0.0397978
	      0.0410650
	      0.0420999
	      0.0420999
	      0.0410650
	      0.0397978
	      0.0425365
	      0.0577238
	      0.0611707
	      0.0453536
	      0.0425365
	      0.0437332
	      0.0447129
	      0.0447129
	      0.0437333
	      0.0425365
	      0.0453535
	      0.0611704
	      0.0834622
	      0.0611705
	      0.0577238
	      0.0591431
	      0.0602437
	      0.0602437
	      0.0591431
	      0.0577238
	      0.0611704
	      0.0834619
	      0.0915007
	      0.0653240
	      0.0610815
	      0.0620458
	      0.0629178
	      0.0629178
	      0.0620458
	      0.0610815
	      0.0653239
	      0.0915004
	      0.0653240
	      0.0428074
	      0.0398861
	      0.0411870
	      0.0419297
	      0.0419297
	      0.0411870
	      0.0398861
	      0.0428074
	      0.0653237
	      0.0610814
	      0.0398861
	      0.0369888
	      0.0382506
	      0.0389987
	      0.0389987
	      0.0382506
	      0.0369888
	      0.0398860
	      0.0610812
	      0.0620457
	      0.0411869
	      0.0382506
	      0.0394813
	      0.0402446
	      0.0402446
	      0.0394813
	      0.0382506
	      0.0411869
	      0.0620454
	      0.0629177
	      0.0419297
	      0.0389987
	      0.0402446
	      0.0410114
	      0.0410114
	      0.0402446
	      0.0389987
	      0.0419297
	      0.0629174
	      0.0629177
	      0.0419297
	      0.0389987
	      0.0402446
	      0.0410114
	      0.0410114
	      0.0402446
	      0.0389987
	      0.0419297
	      0.0629174
	      0.0620457
	      0.0411869
	      0.0382506
	      0.0394813
	      0.0402446
	      0.0402446
	      0.0394813
	      0.0382506
	      0.0411869
	      0.0620454
	      0.0610814
	      0.0398860
	      0.0369887
	      0.0382506
	      0.0389987
	      0.0389987
	      0.0382506
	      0.0369887
	      0.0398860
	      0.0610811
	      0.0653238
	      0.0428073
	      0.0398860
	      0.0411869
	      0.0419296
	      0.0419296
	      0.0411869
	      0.0398860
	      0.0428073
	      0.0653235
	      0.0915002
	      0.0653236
	      0.0610811
	      0.0620453
	      0.0629173
	      0.0629173
	      0.0620453
	      0.0610811
	      0.0653235
	      0.0914999
	      0.1857548
	      0.1320960
	      0.1221178
	      0.1210334
	      0.1211158
	      0.1211158
	      0.1210334
	      0.1221177
	      0.1320958
	      0.1857543
	      0.1320959
	      0.0906932
	      0.0836895
	      0.0828413
	      0.0828220
	      0.0828220
	      0.0828413
	      0.0836894
	      0.0906930
	      0.1320955
	      0.1221177
	      0.0836895
	      0.0772189
	      0.0764688
	      0.0764906
	      0.0764906
	      0.0764688
	      0.0772188
	      0.0836893
	      0.1221173
	      0.1210332
	      0.0828413
	      0.0764688
	      0.0758135
	      0.0759002
	      0.0759002
	      0.0758135
	      0.0764687
	      0.0828411
	      0.1210329
	      0.1211157
	      0.0828219
	      0.0764905
	      0.0759002
	      0.0760230
	      0.0760230
	      0.0759002
	      0.0764905
	      0.0828218
	      0.1211153
	      0.1211157
	      0.0828219
	      0.0764905
	      0.0759002
	      0.0760230
	      0.0760230
	      0.0759002
	      0.0764905
	      0.0828218
	      0.1211153
	      0.1210332
	      0.0828412
	      0.0764687
	      0.0758135
	      0.0759002
	      0.0759002
	      0.0758135
	      0.0764687
	      0.0828411
	      0.1210328
	      0.1221176
	      0.0836894
	      0.0772188
	      0.0764687
	      0.0764905
	      0.0764905
	      0.0764687
	      0.0772187
	      0.0836892
	      0.1221172
	      0.1320956
	      0.0906929
	      0.0836892
	      0.0828410
	      0.0828217
	      0.0828217
	      0.0828410
	      0.0836892
	      0.0906928
	      0.1320952
	      0.1857540
	      0.1320954
	      0.1221171
	      0.1210327
	      0.1211151
	      0.1211151
	      0.1210327
	      0.1221171
	      0.1320951
	      0.1857535
