# vtk DataFile Version 3.0
test_file
ASCII
DATASET POLYDATA
POINTS 1000 float
   0.45000 	   -0.00000 	    0.00000
   0.45000 	   -0.00000 	    1.00000
   0.45000 	    0.00000 	    2.00000
   0.45000 	    0.00000 	    3.00000
   0.45000 	    0.00000 	    4.00000
   0.45000 	    0.00000 	    5.00000
   0.45000 	    0.00000 	    6.00000
   0.45000 	    0.00000 	    7.00000
   0.45000 	   -0.00000 	    8.00000
   0.45000 	    0.00000 	    9.00000
   0.45000 	    1.00000 	    0.00000
   0.45000 	    1.00000 	    1.00000
   0.45000 	    1.00000 	    2.00000
   0.45000 	    1.00000 	    3.00000
   0.45000 	    1.00000 	    4.00000
   0.45000 	    1.00000 	    5.00000
   0.45000 	    1.00000 	    6.00000
   0.45000 	    1.00000 	    7.00000
   0.45000 	    1.00000 	    8.00000
   0.45000 	    1.00000 	    9.00000
   0.45000 	    2.00000 	    0.00000
   0.45000 	    2.00000 	    1.00000
   0.45000 	    2.00000 	    2.00000
   0.45000 	    2.00000 	    3.00000
   0.45000 	    2.00000 	    4.00000
   0.45000 	    2.00000 	    5.00000
   0.45000 	    2.00000 	    6.00000
   0.45000 	    2.00000 	    7.00000
   0.45000 	    2.00000 	    8.00000
   0.45000 	    2.00000 	    9.00000
   0.45000 	    3.00000 	    0.00000
   0.45000 	    3.00000 	    1.00000
   0.45000 	    3.00000 	    2.00000
   0.45000 	    3.00000 	    3.00000
   0.45000 	    3.00000 	    4.00000
   0.45000 	    3.00000 	    5.00000
   0.45000 	    3.00000 	    6.00000
   0.45000 	    3.00000 	    7.00000
   0.45000 	    3.00000 	    8.00000
   0.45000 	    3.00000 	    9.00000
   0.45000 	    4.00000 	    0.00000
   0.45000 	    4.00000 	    1.00000
   0.45000 	    4.00000 	    2.00000
   0.45000 	    4.00000 	    3.00000
   0.45000 	    4.00000 	    4.00000
   0.45000 	    4.00000 	    5.00000
   0.45000 	    4.00000 	    6.00000
   0.45000 	    4.00000 	    7.00000
   0.45000 	    4.00000 	    8.00000
   0.45000 	    4.00000 	    9.00000
   0.45000 	    5.00000 	    0.00000
   0.45000 	    5.00000 	    1.00000
   0.45000 	    5.00000 	    2.00000
   0.45000 	    5.00000 	    3.00000
   0.45000 	    5.00000 	    4.00000
   0.45000 	    5.00000 	    5.00000
   0.45000 	    5.00000 	    6.00000
   0.45000 	    5.00000 	    7.00000
   0.45000 	    5.00000 	    8.00000
   0.45000 	    5.00000 	    9.00000
   0.45000 	    6.00000 	    0.00000
   0.45000 	    6.00000 	    1.00000
   0.45000 	    6.00000 	    2.00000
   0.45000 	    6.00000 	    3.00000
   0.45000 	    6.00000 	    4.00000
   0.45000 	    6.00000 	    5.00000
   0.45000 	    6.00000 	    6.00000
   0.45000 	    6.00000 	    7.00000
   0.45000 	    6.00000 	    8.00000
   0.45000 	    6.00000 	    9.00000
   0.45000 	    7.00000 	    0.00000
   0.45000 	    7.00000 	    1.00000
   0.45000 	    7.00000 	    2.00000
   0.45000 	    7.00000 	    3.00000
   0.45000 	    7.00000 	    4.00000
   0.45000 	    7.00000 	    5.00000
   0.45000 	    7.00000 	    6.00000
   0.45000 	    7.00000 	    7.00000
   0.45000 	    7.00000 	    8.00000
   0.45000 	    7.00000 	    9.00000
   0.45000 	    8.00000 	    0.00000
   0.45000 	    8.00000 	    1.00000
   0.45000 	    8.00000 	    2.00000
   0.45000 	    8.00000 	    3.00000
   0.45000 	    8.00000 	    4.00000
   0.45000 	    8.00000 	    5.00000
   0.45000 	    8.00000 	    6.00000
   0.45000 	    8.00000 	    7.00000
   0.45000 	    8.00000 	    8.00000
   0.45000 	    8.00000 	    9.00000
   0.45000 	    9.00000 	    0.00000
   0.45000 	    9.00000 	    1.00000
   0.45000 	    9.00000 	    2.00000
   0.45000 	    9.00000 	    3.00000
   0.45000 	    9.00000 	    4.00000
   0.45000 	    9.00000 	    5.00000
   0.45000 	    9.00000 	    6.00000
   0.45000 	    9.00000 	    7.00000
   0.45000 	    9.00000 	    8.00000
   0.45000 	    9.00000 	    9.00000
   1.45325 	   -0.07940 	   -0.07940
   1.44702 	   -0.08585 	    0.95559
   1.44453 	   -0.08648 	    1.97682
   1.44745 	   -0.08921 	    2.98118
   1.44566 	   -0.08904 	    3.99276
   1.44566 	   -0.08904 	    5.00724
   1.44744 	   -0.08921 	    6.01882
   1.44453 	   -0.08648 	    7.02318
   1.44702 	   -0.08585 	    8.04441
   1.45325 	   -0.07940 	    9.07940
   1.44702 	    0.95559 	   -0.08585
   1.44072 	    0.93920 	    0.93920
   1.43186 	    0.94434 	    1.97224
   1.43412 	    0.94160 	    2.96991
   1.43325 	    0.94440 	    3.98798
   1.43325 	    0.94440 	    5.01202
   1.43412 	    0.94160 	    6.03009
   1.43186 	    0.94434 	    7.02776
   1.44072 	    0.93920 	    8.06079
   1.44702 	    0.95559 	    9.08585
   1.44453 	    1.97682 	   -0.08648
   1.43186 	    1.97224 	    0.94434
   1.43171 	    1.97361 	    1.97361
   1.43164 	    1.97423 	    2.96306
   1.43332 	    1.97484 	    3.98573
   1.43332 	    1.97484 	    5.01426
   1.43164 	    1.97423 	    6.03693
   1.43171 	    1.97361 	    7.02639
   1.43186 	    1.97224 	    8.05565
   1.44453 	    1.97682 	    9.08648
   1.44745 	    2.98118 	   -0.08921
   1.43412 	    2.96991 	    0.94160
   1.43164 	    2.96306 	    1.97423
   1.43044 	    2.96263 	    2.96263
   1.43203 	    2.96185 	    3.98584
   1.43203 	    2.96185 	    5.01415
   1.43044 	    2.96263 	    6.03737
   1.43164 	    2.96306 	    7.02576
   1.43412 	    2.96991 	    8.05839
   1.44745 	    2.98118 	    9.08921
   1.44566 	    3.99276 	   -0.08904
   1.43325 	    3.98798 	    0.94440
   1.43332 	    3.98573 	    1.97484
   1.43203 	    3.98584 	    2.96186
   1.43344 	    3.98564 	    3.98565
   1.43344 	    3.98565 	    5.01435
   1.43203 	    3.98584 	    6.03814
   1.43331 	    3.98573 	    7.02516
   1.43325 	    3.98798 	    8.05560
   1.44566 	    3.99276 	    9.08903
   1.44566 	    5.00724 	   -0.08904
   1.43325 	    5.01201 	    0.94440
   1.43331 	    5.01426 	    1.97484
   1.43203 	    5.01415 	    2.96186
   1.43344 	    5.01434 	    3.98565
   1.43344 	    5.01434 	    5.01435
   1.43203 	    5.01415 	    6.03814
   1.43331 	    5.01426 	    7.02516
   1.43325 	    5.01201 	    8.05560
   1.44566 	    5.00724 	    9.08903
   1.44745 	    6.01882 	   -0.08921
   1.43412 	    6.03009 	    0.94161
   1.43164 	    6.03693 	    1.97423
   1.43044 	    6.03736 	    2.96263
   1.43203 	    6.03814 	    3.98584
   1.43203 	    6.03814 	    5.01415
   1.43044 	    6.03736 	    6.03736
   1.43164 	    6.03693 	    7.02576
   1.43412 	    6.03008 	    8.05839
   1.44745 	    6.01882 	    9.08921
   1.44453 	    7.02318 	   -0.08648
   1.43186 	    7.02776 	    0.94434
   1.43171 	    7.02639 	    1.97361
   1.43164 	    7.02576 	    2.96306
   1.43331 	    7.02516 	    3.98573
   1.43331 	    7.02515 	    5.01426
   1.43164 	    7.02576 	    6.03693
   1.43171 	    7.02639 	    7.02639
   1.43186 	    7.02776 	    8.05565
   1.44453 	    7.02318 	    9.08648
   1.44702 	    8.04440 	   -0.08585
   1.44072 	    8.06079 	    0.93921
   1.43186 	    8.05565 	    1.97224
   1.43412 	    8.05839 	    2.96991
   1.43325 	    8.05560 	    3.98798
   1.43325 	    8.05560 	    5.01202
   1.43412 	    8.05839 	    6.03009
   1.43186 	    8.05565 	    7.02776
   1.44072 	    8.06079 	    8.06079
   1.44702 	    8.04440 	    9.08585
   1.45325 	    9.07940 	   -0.07940
   1.44702 	    9.08585 	    0.95560
   1.44453 	    9.08648 	    1.97682
   1.44745 	    9.08921 	    2.98118
   1.44566 	    9.08903 	    3.99276
   1.44566 	    9.08903 	    5.00724
   1.44745 	    9.08921 	    6.01882
   1.44453 	    9.08648 	    7.02318
   1.44702 	    9.08585 	    8.04440
   1.45325 	    9.07940 	    9.07940
   2.34979 	   -0.11605 	   -0.11605
   2.36767 	   -0.12205 	    0.91318
   2.37286 	   -0.12706 	    1.94288
   2.37236 	   -0.13182 	    2.96479
   2.37051 	   -0.13441 	    3.98846
   2.37051 	   -0.13441 	    5.01154
   2.37236 	   -0.13181 	    6.03521
   2.37286 	   -0.12706 	    7.05712
   2.36767 	   -0.12205 	    8.08681
   2.34980 	   -0.11605 	    9.11605
   2.36767 	    0.91318 	   -0.12205
   2.41236 	    0.90334 	    0.90334
   2.42613 	    0.89582 	    1.94951
   2.42497 	    0.89198 	    2.96906
   2.42199 	    0.88816 	    3.99053
   2.42198 	    0.88816 	    5.00947
   2.42497 	    0.89198 	    6.03094
   2.42613 	    0.89582 	    7.05048
   2.41236 	    0.90334 	    8.09665
   2.36767 	    0.91319 	    9.12205
   2.37286 	    1.94288 	   -0.12706
   2.42613 	    1.94951 	    0.89582
   2.42822 	    1.94682 	    1.94682
   2.42389 	    1.94614 	    2.96978
   2.41668 	    1.94053 	    3.99144
   2.41668 	    1.94053 	    5.00856
   2.42389 	    1.94614 	    6.03022
   2.42822 	    1.94682 	    7.05318
   2.42613 	    1.94951 	    8.10417
   2.37286 	    1.94288 	    9.12705
   2.37236 	    2.96479 	   -0.13181
   2.42497 	    2.96906 	    0.89198
   2.42389 	    2.96978 	    1.94614
   2.41858 	    2.96917 	    2.96917
   2.41066 	    2.96748 	    3.99097
   2.41066 	    2.96748 	    5.00902
   2.41858 	    2.96917 	    6.03083
   2.42389 	    2.96978 	    7.05385
   2.42497 	    2.96906 	    8.10801
   2.37236 	    2.96479 	    9.13181
   2.37051 	    3.98845 	   -0.13441
   2.42199 	    3.99053 	    0.88816
   2.41668 	    3.99143 	    1.94054
   2.41066 	    3.99097 	    2.96749
   2.40170 	    3.99040 	    3.99040
   2.40170 	    3.99040 	    5.00960
   2.41066 	    3.99097 	    6.03251
   2.41668 	    3.99143 	    7.05946
   2.42199 	    3.99053 	    8.11183
   2.37051 	    3.98845 	    9.13440
   2.37051 	    5.01154 	   -0.13441
   2.42198 	    5.00947 	    0.88816
   2.41668 	    5.00856 	    1.94054
   2.41066 	    5.00902 	    2.96749
   2.40170 	    5.00960 	    3.99040
   2.40170 	    5.00960 	    5.00960
   2.41066 	    5.00902 	    6.03251
   2.41668 	    5.00856 	    7.05946
   2.42199 	    5.00947 	    8.11183
   2.37051 	    5.01154 	    9.13440
   2.37236 	    6.03521 	   -0.13181
   2.42497 	    6.03094 	    0.89198
   2.42389 	    6.03022 	    1.94614
   2.41858 	    6.03083 	    2.96917
   2.41066 	    6.03251 	    3.99097
   2.41066 	    6.03251 	    5.00902
   2.41858 	    6.03083 	    6.03083
   2.42389 	    6.03021 	    7.05385
[...]
POINT_DATA 1000
SCALARS C float
LOOKUP_TABLE default
	      0.9348947
	      0.5341818
	      0.5277432
	      0.5503602
	      0.5250922
	      0.5250897
	      0.5503561
	      0.5277409
	      0.5341745
	      0.9348706
	      0.5341769
	      0.1164549
	      0.1123783
	      0.1381461
	      0.1182306
	      0.1182292
	      0.1381447
	      0.1123810
	      0.1164542
	      0.5341617
	      0.5277365
	      0.1123776
	      0.1114841
	      0.1482743
	      0.1269744
	      0.1269728
	      0.1482723
	      0.1114866
	      0.1123780
	      0.5277192
	      0.5503537
	      0.1381462
	      0.1482753
	      0.1961088
	      0.1745138
	      0.1745120
	      0.1961064
	      0.1482775
	      0.1381464
	      0.5503352
	      0.5250852
	      0.1182307
	      0.1269754
	      0.1745136
	      0.1507639
	      0.1507620
	      0.1745110
	      0.1269777
	      0.1182314
	      0.5250672
	      0.5250820
	      0.1182286
	      0.1269729
	      0.1745107
	      0.1507608
	      0.1507589
	      0.1745081
	      0.1269752
	      0.1182293
	      0.5250640
	      0.5503489
	      0.1381442
	      0.1482725
	      0.1961051
	      0.1745097
	      0.1745079
	      0.1961027
	      0.1482747
	      0.1381444
	      0.5503304
	      0.5277346
	      0.1123812
	      0.1114879
	      0.1482777
	      0.1269778
	      0.1269762
	      0.1482757
	      0.1114904
	      0.1123815
	      0.5277173
	      0.5341678
	      0.1164537
	      0.1123782
	      0.1381459
	      0.1182309
	      0.1182295
	      0.1381445
	      0.1123808
	      0.1164530
	      0.5341526
	      0.9348613
	      0.5341550
	      0.5277129
	      0.5503280
	      0.5250595
	      0.5250570
	      0.5503239
	      0.5277105
	      0.5341477
	      0.9348372
	      0.0743460
	      0.0573229
	      0.0569666
	      0.0621576
	      0.0627773
	      0.0627773
	      0.0621576
	      0.0569666
	      0.0573228
	      0.0743456
	      0.0573231
	      0.0597467
	      0.0597905
	      0.0711082
	      0.0704580
	      0.0704578
	      0.0711083
	      0.0597898
	      0.0597466
	      0.0573228
	      0.0569666
	      0.0597904
	      0.0506522
	      0.0614683
	      0.0596304
	      0.0596300
	      0.0614684
	      0.0506513
	      0.0597903
	      0.0569660
	      0.0621575
	      0.0711078
	      0.0614680
	      0.0732361
	      0.0716880
	      0.0716874
	      0.0732361
	      0.0614671
	      0.0711078
	      0.0621565
	      0.0627772
	      0.0704578
	      0.0596303
	      0.0716881
	      0.0699145
	      0.0699138
	      0.0716881
	      0.0596296
	      0.0704578
	      0.0627763
	      0.0627773
	      0.0704576
	      0.0596297
	      0.0716873
	      0.0699135
	      0.0699129
	      0.0716873
	      0.0596290
	      0.0704576
	      0.0627764
	      0.0621575
	      0.0711080
	      0.0614682
	      0.0732360
	      0.0716879
	      0.0716874
	      0.0732360
	      0.0614673
	      0.0711080
	      0.0621565
	      0.0569664
	      0.0597894
	      0.0506509
	      0.0614669
	      0.0596293
	      0.0596289
	      0.0614670
	      0.0506500
	      0.0597893
	      0.0569658
	      0.0573227
	      0.0597467
	      0.0597898
	      0.0711074
	      0.0704576
	      0.0704575
	      0.0711076
	      0.0597892
	      0.0597466
	      0.0573224
	      0.0743458
	      0.0573228
	      0.0569658
	      0.0621563
	      0.0627763
	      0.0627763
	      0.0621563
	      0.0569658
	      0.0573226
	      0.0743454
	      0.1709681
	      0.1253980
	      0.1140227
	      0.1133154
	      0.1129558
	      0.1129557
	      0.1133151
	      0.1140220
	      0.1253966
	      0.1709657
	      0.1253981
	      0.0982662
	      0.0923682
	      0.0927700
	      0.0926826
	      0.0926825
	      0.0927698
	      0.0923675
	      0.0982653
	      0.1253971
	      0.1140226
	      0.0923680
	      0.0894205
	      0.0862471
	      0.0886675
	      0.0886672
	      0.0862475
	      0.0894191
	      0.0923671
	      0.1140214
	      0.1133151
	      0.0927695
	      0.0862465
	      0.0806283
	      0.0841457
	      0.0841455
	      0.0806295
	      0.0862454
	      0.0927681
	      0.1133137
	      0.1129554
	      0.0926821
	      0.0886672
	      0.0841460
	      0.0893937
	      0.0893937
	      0.0841468
	      0.0886657
	      0.0926807
	      0.1129540
	      0.1129553
	      0.0926820
	      0.0886666
	      0.0841455
	      0.0893935
	      0.0893935
	      0.0841464
	      0.0886651
	      0.0926806
	      0.1129538
	      0.1133146
	      0.0927692
	      0.0862472
	      0.0806298
	      0.0841468
	      0.0841466
	      0.0806310
	      0.0862461
	      0.0927678
	      0.1133131
	      0.1140214
	      0.0923669
	      0.0894182
	      0.0862452
	      0.0886651
	      0.0886647
	      0.0862455
	      0.0894169
	      0.0923659
	      0.1140201
	      0.1253960
	      0.0982654
	      0.0923664
	      0.0927676
	      0.0926801
	      0.0926800
	      0.0927673
	      0.0923657
	      0.0982645
	      0.1253950
	      0.1709652
	      0.1253964
	      0.1140208
	      0.1133132
	      0.1129535
	      0.1129535
	      0.1133128
	      0.1140200
	      0.1253951
	      0.1709628
	      0.1630602
	      0.1285477
	      0.1220336
	      0.1216980
	      0.1218684
	      0.1218683
	      0.1216976
	      0.1220329
	      0.1285466
	      0.1630586
	      0.1285480
	      0.1034065
	      0.0992573
	      0.0973028
	      0.0969623
	      0.0969620
	      0.0973025
	      0.0992567
	      0.1034067
	      0.1285472
	      0.1220338
	      0.0992576
	      0.1194564
	      0.1173569
	      0.1246882
	      0.1246881
	      0.1173569
	      0.1194549
	      0.0992584
	      0.1220323
	      0.1216979
	      0.0973030
	      0.1173562
	      0.1076311
	      0.1146941
	      0.1146939
	      0.1076313
	      0.1173550
	      0.0973035
	      0.1216961
	      0.1218682
	      0.0969624
	      0.1246877
	      0.1146941
	      0.1239436
	      0.1239436
	      0.1146939
	      0.1246861
	      0.0969629
	      0.1218663
	      0.1218679
	      0.0969620
	      0.1246874
	      0.1146937
	      0.1239434
	      0.1239434
	      0.1146936
	      0.1246858
	      0.0969625
	      0.1218660
	      0.1216972
	      0.0973025
	      0.1173564
	      0.1076311
	      0.1146938
	      0.1146936
	      0.1076314
	      0.1173552
	      0.0973030
	      0.1216954
	      0.1220323
	      0.0992565
	      0.1194540
	      0.1173545
	      0.1246854
	      0.1246853
	      0.1173546
	      0.1194525
	      0.0992573
	      0.1220308
	      0.1285460
	      0.1034068
	      0.0992582
	      0.0973035
	      0.0969629
	      0.0969626
	      0.0973032
	      0.0992576
	      0.1034070
	      0.1285451
	      0.1630584
	      0.1285465
	      0.1220317
	      0.1216957
	      0.1218659
	      0.1218658
	      0.1216953
	      0.1220310
	      0.1285454
	      0.1630567
	      0.1333592
	      0.1119001
	      0.1101478
	      0.1120163
	      0.1123608
	      0.1123606
	      0.1120159
	      0.1101474
	      0.1118996
	      0.1333589
	      0.1119005
	      0.0896469
	      0.0906543
	      0.0908641
	      0.0902562
	      0.0902556
	      0.0908634
	      0.0906542
	      0.0896476
	      0.1119012
	      0.1101484
	      0.0906546
	      0.0999781
	      0.1019824
	      0.1107509
	      0.1107525
	      0.1019822
	      0.0999758
	      0.0906556
	      0.1101485
	      0.1120168
	      0.0908646
	      0.1019818
	      0.0964521
	      0.1045127
	      0.1045145
	      0.0964521
	      0.1019793
	      0.0908662
	      0.1120167
	      0.1123611
	      0.0902567
	      0.1107500
	      0.1045125
	      0.1142003
	      0.1142020
	      0.1045119
	      0.1107475
	      0.0902579
	      0.1123609
	      0.1123607
	      0.0902559
	      0.1107517
	      0.1045147
	      0.1142026
	      0.1142043
	      0.1045141
	      0.1107492
	      0.0902571
	      0.1123605
	      0.1120159
	      0.0908636
	      0.1019814
	      0.0964518
	      0.1045120
	      0.1045139
	      0.0964517
	      0.1019790
	      0.0908652
	      0.1120157
	      0.1101472
	      0.0906542
	      0.0999749
	      0.1019785
	      0.1107467
	      0.1107483
	      0.1019783
	      0.0999726
	      0.0906552
	      0.1101474
	      0.1118994
	      0.0896478
	      0.0906557
	      0.0908664
	      0.0902582
	      0.0902576
	      0.0908658
	      0.0906555
	      0.0896485
	      0.1119001
	      0.1333595
	      0.1119010
	      0.1101484
	      0.1120167
	      0.1123610
	      0.1123608
	      0.1120163
	      0.1101480
	      0.1119005
	      0.1333592
	      0.1333067
	      0.1118157
	      0.1100520
	      0.1119020
	      0.1122750
	      0.1122748
	      0.1119016
	      0.1100516
	      0.1118153
	      0.1333064
	      0.1118162
	      0.0896819
	      0.0905084
	      0.0914204
	      0.0913726
	      0.0913722
	      0.0914199
	      0.0905082
	      0.0896823
	      0.1118170
	      0.1100526
	      0.0905088
	      0.1011208
	      0.1020819
	      0.1088639
	      0.1088645
	      0.1020819
	      0.1011196
	      0.0905092
	      0.1100528
	      0.1119025
	      0.0914209
	      0.1020813
	      0.0951194
	      0.1006672
	      0.1006677
	      0.0951193
	      0.1020802
	      0.0914217
	      0.1119026
	      0.1122753
	      0.0913729
	      0.1088632
	      0.1006671
	      0.1081819
	      0.1081823
	      0.1006665
	      0.1088621
	      0.0913735
	      0.1122753
	      0.1122750
	      0.0913725
	      0.1088639
	      0.1006677
	      0.1081824
	      0.1081829
	      0.1006671
	      0.1088628
	      0.0913730
	      0.1122750
	      0.1119017
	      0.0914201
	      0.1020814
	      0.0951192
	      0.1006665
	      0.1006670
	      0.0951192
	      0.1020803
	      0.0914209
	      0.1119017
	      0.1100515
	      0.0905082
	      0.1011189
	      0.1020797
	      0.1088615
	      0.1088621
	      0.1020797
	      0.1011177
	      0.0905087
	      0.1100518
	      0.1118152
	      0.0896825
	      0.0905092
	      0.0914219
	      0.0913737
	      0.0913734
	      0.0914214
	      0.0905090
	      0.0896829
	      0.1118160
	      0.1333071
	      0.1118168
	      0.1100527
	      0.1119026
	      0.1122755
	      0.1122754
	      0.1119023
	      0.1100524
	      0.1118164
	      0.1333068
	      0.1631519
	      0.1286170
	      0.1221130
	      0.1217610
	      0.1219121
	      0.1219120
	      0.1217606
	      0.1221123
	      0.1286160
	      0.1631503
	      0.1286173
	      0.1033706
	      0.0996431
	      0.0980960
	      0.0978843
	      0.0978842
	      0.0980957
	      0.0996425
	      0.1033705
	      0.1286166
	      0.1221131
	      0.0996434
	      0.1178171
	      0.1164507
	      0.1225250
	      0.1225247
	      0.1164506
	      0.1178163
	      0.0996429
	      0.1221118
	      0.1217610
	      0.0980961
	      0.1164503
	      0.1081903
	      0.1141365
	      0.1141357
	      0.1081900
	      0.1164500
	      0.0980952
	      0.1217594
	      0.1219119
	      0.0978841
	      0.1225246
	      0.1141363
	      0.1232754
	      0.1232751
	      0.1141357
	      0.1225238
	      0.0978831
	      0.1219103
	      0.1219117
	      0.0978840
	      0.1225241
	      0.1141354
	      0.1232747
	      0.1232744
	      0.1141348
	      0.1225234
	      0.0978829
	      0.1219101
	      0.1217602
	      0.0980955
	      0.1164501
	      0.1081896
	      0.1141353
	      0.1141346
	      0.1081894
	      0.1164498
	      0.0980946
	      0.1217586
	      0.1221117
	      0.0996420
	      0.1178155
	      0.1164495
	      0.1225233
	      0.1225230
	      0.1164494
	      0.1178146
	      0.0996416
	      0.1221104
	      0.1286154
	      0.1033704
	      0.0996425
	      0.0980950
	      0.0978828
	      0.0978827
	      0.0980946
	      0.0996418
	      0.1033702
	      0.1286148
	      0.1631502
	      0.1286160
	      0.1221113
	      0.1217590
	      0.1219100
	      0.1219099
	      0.1217586
	      0.1221106
	      0.1286150
	      0.1631486
	      0.1715025
	      0.1258446
	      0.1145200
	      0.1138202
	      0.1133825
	      0.1133824
	      0.1138198
	      0.1145192
	      0.1258433
	      0.1715000
	      0.1258447
	      0.0983646
	      0.0928652
	      0.0929462
	      0.0924208
	      0.0924207
	      0.0929457
	      0.0928646
	      0.0983642
	      0.1258430
	      0.1145199
	      0.0928652
	      0.0879689
	      0.0871798
	      0.0901032
	      0.0901037
	      0.0871800
	      0.0879679
	      0.0928658
	      0.1145178
	      0.1138198
	      0.0929459
	      0.0871794
	      0.0853009
	      0.0899670
	      0.0899676
	      0.0853018
	      0.0871786
	      0.0929461
	      0.1138175
	      0.1133820
	      0.0924205
	      0.0901028
	      0.0899671
	      0.0971493
	      0.0971503
	      0.0899680
	      0.0901020
	      0.0924205
	      0.1133797
	      0.1133818
	      0.0924203
	      0.0901034
	      0.0899680
	      0.0971506
	      0.0971516
	      0.0899688
	      0.0901026
	      0.0924202
	      0.1133795
	      0.1138191
	      0.0929453
	      0.0871798
	      0.0853020
	      0.0899683
	      0.0899690
	      0.0853029
	      0.0871791
	      0.0929455
	      0.1138168
	      0.1145185
	      0.0928642
	      0.0879674
	      0.0871784
	      0.0901017
	      0.0901023
	      0.0871786
	      0.0879664
	      0.0928649
	      0.1145165
	      0.1258425
	      0.0983645
	      0.0928654
	      0.0929457
	      0.0924201
	      0.0924200
	      0.0929452
	      0.0928648
	      0.0983642
	      0.1258409
	      0.1714992
	      0.1258422
	      0.1145171
	      0.1138169
	      0.1133791
	      0.1133790
	      0.1138164
	      0.1145163
	      0.1258409
	      0.1714967
	      0.0750774
	      0.0578633
	      0.0575340
	      0.0627736
	      0.0633666
	      0.0633666
	      0.0627735
	      0.0575339
	      0.0578633
	      0.0750770
	      0.0578635
	      0.0598179
	      0.0597403
	      0.0710912
	      0.0701411
	      0.0701409
	      0.0710908
	      0.0597400
	      0.0598177
	      0.0578634
	      0.0575340
	      0.0597401
	      0.0502317
	      0.0603446
	      0.0579267
	      0.0579260
	      0.0603437
	      0.0502314
	      0.0597396
	      0.0575338
	      0.0627735
	      0.0710908
	      0.0603447
	      0.0696670
	      0.0665868
	      0.0665859
	      0.0696656
	      0.0603444
	      0.0710903
	      0.0627728
	      0.0633666
	      0.0701409
	      0.0579267
	      0.0665867
	      0.0625813
	      0.0625802
	      0.0665851
	      0.0579265
	      0.0701405
	      0.0633659
	      0.0633666
	      0.0701405
	      0.0579257
	      0.0665853
	      0.0625797
	      0.0625786
	      0.0665837
	      0.0579255
	      0.0701402
	      0.0633659
	      0.0627734
	      0.0710903
	      0.0603433
	      0.0696650
	      0.0665845
	      0.0665836
	      0.0696637
	      0.0603430
	      0.0710897
	      0.0627727
	      0.0575338
	      0.0597395
	      0.0502312
	      0.0603440
	      0.0579262
	      0.0579255
	      0.0603431
	      0.0502309
	      0.0597391
	      0.0575335
	      0.0578633
	      0.0598177
	      0.0597392
	      0.0710898
	      0.0701401
	      0.0701399
	      0.0710894
	      0.0597389
	      0.0598174
	      0.0578632
	      0.0750774
	      0.0578635
	      0.0575336
	      0.0627727
	      0.0633659
	      0.0633659
	      0.0627726
	      0.0575336
	      0.0578634
	      0.0750770
	      0.9354458
	      0.5335022
	      0.5259009
	      0.5494419
	      0.5245563
	      0.5245543
	      0.5494381
	      0.5258975
	      0.5334948
	      0.9354216
	      0.5334974
	      0.1185968
	      0.1135381
	      0.1397356
	      0.1200790
	      0.1200785
	      0.1397352
	      0.1135396
	      0.1185968
	      0.5334822
	      0.5258943
	      0.1135375
	      0.1120672
	      0.1491821
	      0.1278477
	      0.1278468
	      0.1491810
	      0.1120685
	      0.1135379
	      0.5258772
	      0.5494354
	      0.1397355
	      0.1491828
	      0.1972602
	      0.1752838
	      0.1752828
	      0.1972587
	      0.1491840
	      0.1397357
	      0.5494170
	      0.5245492
	      0.1200791
	      0.1278484
	      0.1752837
	      0.1507125
	      0.1507115
	      0.1752821
	      0.1278498
	      0.1200798
	      0.5245312
	      0.5245467
	      0.1200782
	      0.1278469
	      0.1752819
	      0.1507107
	      0.1507097
	      0.1752803
	      0.1278483
	      0.1200789
	      0.5245287
	      0.5494309
	      0.1397348
	      0.1491812
	      0.1972577
	      0.1752812
	      0.1752802
	      0.1972563
	      0.1491823
	      0.1397350
	      0.5494125
	      0.5258910
	      0.1135396
	      0.1120693
	      0.1491841
	      0.1278499
	      0.1278490
	      0.1491830
	      0.1120707
	      0.1135401
	      0.5258738
	      0.5334881
	      0.1185965
	      0.1135380
	      0.1397354
	      0.1200795
	      0.1200790
	      0.1397350
	      0.1135394
	      0.1185965
	      0.5334730
	      0.9354119
	      0.5334755
	      0.5258707
	      0.5494098
	      0.5245236
	      0.5245216
	      0.5494060
	      0.5258673
	      0.5334681
	      0.9353878
