# vtk DataFile Version 3.0
test_file
ASCII
DATASET POLYDATA
POINTS 1000 float
   0.80000 	   -0.00000 	    0.00000
   0.80000 	   -0.00000 	    1.00000
   0.80000 	    0.00000 	    2.00000
   0.80000 	    0.00000 	    3.00000
   0.80000 	    0.00000 	    4.00000
   0.80000 	    0.00000 	    5.00000
   0.80000 	    0.00000 	    6.00000
   0.80000 	    0.00000 	    7.00000
   0.80000 	   -0.00000 	    8.00000
   0.80000 	    0.00000 	    9.00000
   0.80000 	    1.00000 	    0.00000
   0.80000 	    1.00000 	    1.00000
   0.80000 	    1.00000 	    2.00000
   0.80000 	    1.00000 	    3.00000
   0.80000 	    1.00000 	    4.00000
   0.80000 	    1.00000 	    5.00000
   0.80000 	    1.00000 	    6.00000
   0.80000 	    1.00000 	    7.00000
   0.80000 	    1.00000 	    8.00000
   0.80000 	    1.00000 	    9.00000
   0.80000 	    2.00000 	    0.00000
   0.80000 	    2.00000 	    1.00000
   0.80000 	    2.00000 	    2.00000
   0.80000 	    2.00000 	    3.00000
   0.80000 	    2.00000 	    4.00000
   0.80000 	    2.00000 	    5.00000
   0.80000 	    2.00000 	    6.00000
   0.80000 	    2.00000 	    7.00000
   0.80000 	    2.00000 	    8.00000
   0.80000 	    2.00000 	    9.00000
   0.80000 	    3.00000 	    0.00000
   0.80000 	    3.00000 	    1.00000
   0.80000 	    3.00000 	    2.00000
   0.80000 	    3.00000 	    3.00000
   0.80000 	    3.00000 	    4.00000
   0.80000 	    3.00000 	    5.00000
   0.80000 	    3.00000 	    6.00000
   0.80000 	    3.00000 	    7.00000
   0.80000 	    3.00000 	    8.00000
   0.80000 	    3.00000 	    9.00000
   0.80000 	    4.00000 	    0.00000
   0.80000 	    4.00000 	    1.00000
   0.80000 	    4.00000 	    2.00000
   0.80000 	    4.00000 	    3.00000
   0.80000 	    4.00000 	    4.00000
   0.80000 	    4.00000 	    5.00000
   0.80000 	    4.00000 	    6.00000
   0.80000 	    4.00000 	    7.00000
   0.80000 	    4.00000 	    8.00000
   0.80000 	    4.00000 	    9.00000
   0.80000 	    5.00000 	    0.00000
   0.80000 	    5.00000 	    1.00000
   0.80000 	    5.00000 	    2.00000
   0.80000 	    5.00000 	    3.00000
   0.80000 	    5.00000 	    4.00000
   0.80000 	    5.00000 	    5.00000
   0.80000 	    5.00000 	    6.00000
   0.80000 	    5.00000 	    7.00000
   0.80000 	    5.00000 	    8.00000
   0.80000 	    5.00000 	    9.00000
   0.80000 	    6.00000 	    0.00000
   0.80000 	    6.00000 	    1.00000
   0.80000 	    6.00000 	    2.00000
   0.80000 	    6.00000 	    3.00000
   0.80000 	    6.00000 	    4.00000
   0.80000 	    6.00000 	    5.00000
   0.80000 	    6.00000 	    6.00000
   0.80000 	    6.00000 	    7.00000
   0.80000 	    6.00000 	    8.00000
   0.80000 	    6.00000 	    9.00000
   0.80000 	    7.00000 	    0.00000
   0.80000 	    7.00000 	    1.00000
   0.80000 	    7.00000 	    2.00000
   0.80000 	    7.00000 	    3.00000
   0.80000 	    7.00000 	    4.00000
   0.80000 	    7.00000 	    5.00000
   0.80000 	    7.00000 	    6.00000
   0.80000 	    7.00000 	    7.00000
   0.80000 	    7.00000 	    8.00000
   0.80000 	    7.00000 	    9.00000
   0.80000 	    8.00000 	    0.00000
   0.80000 	    8.00000 	    1.00000
   0.80000 	    8.00000 	    2.00000
   0.80000 	    8.00000 	    3.00000
   0.80000 	    8.00000 	    4.00000
   0.80000 	    8.00000 	    5.00000
   0.80000 	    8.00000 	    6.00000
   0.80000 	    8.00000 	    7.00000
   0.80000 	    8.00000 	    8.00000
   0.80000 	    8.00000 	    9.00000
   0.80000 	    9.00000 	    0.00000
   0.80000 	    9.00000 	    1.00000
   0.80000 	    9.00000 	    2.00000
   0.80000 	    9.00000 	    3.00000
   0.80000 	    9.00000 	    4.00000
   0.80000 	    9.00000 	    5.00000
   0.80000 	    9.00000 	    6.00000
   0.80000 	    9.00000 	    7.00000
   0.80000 	    9.00000 	    8.00000
   0.80000 	    9.00000 	    9.00000
   1.81374 	   -0.14801 	   -0.14801
   1.80242 	   -0.15987 	    0.92071
   1.80014 	   -0.16009 	    1.95729
   1.80612 	   -0.16490 	    2.96593
   1.80206 	   -0.16442 	    3.98717
   1.80206 	   -0.16442 	    5.01282
   1.80612 	   -0.16490 	    6.03407
   1.80014 	   -0.16009 	    7.04271
   1.80242 	   -0.15987 	    8.07929
   1.81374 	   -0.14801 	    9.14801
   1.80242 	    0.92071 	   -0.15987
   1.77811 	    0.89317 	    0.89318
   1.76700 	    0.90364 	    1.94485
   1.77035 	    0.89950 	    2.94769
   1.76873 	    0.90341 	    3.97978
   1.76873 	    0.90341 	    5.02021
   1.77035 	    0.89950 	    6.05230
   1.76700 	    0.90364 	    7.05514
   1.77811 	    0.89318 	    8.10682
   1.80242 	    0.92071 	    9.15986
   1.80014 	    1.95729 	   -0.16009
   1.76700 	    1.94485 	    0.90365
   1.77237 	    1.94874 	    1.94875
   1.77215 	    1.94908 	    2.93833
   1.77416 	    1.94986 	    3.97609
   1.77416 	    1.94986 	    5.02390
   1.77215 	    1.94908 	    6.06166
   1.77237 	    1.94875 	    7.05125
   1.76700 	    1.94485 	    8.09635
   1.80014 	    1.95729 	    9.16008
   1.80612 	    2.96593 	   -0.16490
   1.77035 	    2.94769 	    0.89951
   1.77215 	    2.93833 	    1.94908
   1.76985 	    2.93680 	    2.93680
   1.77180 	    2.93627 	    3.97581
   1.77180 	    2.93627 	    5.02418
   1.76985 	    2.93680 	    6.06319
   1.77215 	    2.93833 	    7.05092
   1.77035 	    2.94769 	    8.10049
   1.80612 	    2.96593 	    9.16489
   1.80206 	    3.98717 	   -0.16442
   1.76873 	    3.97978 	    0.90341
   1.77416 	    3.97609 	    1.94986
   1.77180 	    3.97581 	    2.93627
   1.77364 	    3.97579 	    3.97579
   1.77364 	    3.97579 	    5.02420
   1.77180 	    3.97581 	    6.06372
   1.77416 	    3.97609 	    7.05014
   1.76873 	    3.97978 	    8.09659
   1.80206 	    3.98717 	    9.16441
   1.80206 	    5.01282 	   -0.16442
   1.76873 	    5.02021 	    0.90341
   1.77416 	    5.02390 	    1.94986
   1.77180 	    5.02418 	    2.93627
   1.77364 	    5.02420 	    3.97579
   1.77364 	    5.02420 	    5.02420
   1.77180 	    5.02418 	    6.06372
   1.77416 	    5.02390 	    7.05014
   1.76873 	    5.02021 	    8.09659
   1.80206 	    5.01282 	    9.16441
   1.80612 	    6.03407 	   -0.16490
   1.77035 	    6.05230 	    0.89951
   1.77215 	    6.06166 	    1.94908
   1.76985 	    6.06318 	    2.93681
   1.77180 	    6.06372 	    3.97581
   1.77180 	    6.06372 	    5.02418
   1.76985 	    6.06318 	    6.06319
   1.77215 	    6.06166 	    7.05092
   1.77035 	    6.05230 	    8.10049
   1.80612 	    6.03407 	    9.16489
   1.80014 	    7.04270 	   -0.16008
   1.76700 	    7.05514 	    0.90365
   1.77237 	    7.05125 	    1.94875
   1.77215 	    7.05091 	    2.93833
   1.77416 	    7.05014 	    3.97609
   1.77416 	    7.05014 	    5.02390
   1.77215 	    7.05091 	    6.06166
   1.77237 	    7.05125 	    7.05125
   1.76700 	    7.05514 	    8.09635
   1.80014 	    7.04270 	    9.16008
   1.80242 	    8.07929 	   -0.15986
   1.77811 	    8.10681 	    0.89318
   1.76700 	    8.09635 	    1.94485
   1.77035 	    8.10049 	    2.94769
   1.76873 	    8.09658 	    3.97978
   1.76873 	    8.09658 	    5.02021
   1.77035 	    8.10049 	    6.05230
   1.76700 	    8.09634 	    7.05514
   1.77811 	    8.10681 	    8.10681
   1.80242 	    8.07928 	    9.15986
   1.81374 	    9.14801 	   -0.14800
   1.80242 	    9.15986 	    0.92071
   1.80014 	    9.16008 	    1.95729
   1.80612 	    9.16489 	    2.96593
   1.80206 	    9.16441 	    3.98717
   1.80206 	    9.16441 	    5.01282
   1.80612 	    9.16489 	    6.03407
   1.80014 	    9.16008 	    7.04270
   1.80242 	    9.15986 	    8.07928
   1.81374 	    9.14800 	    9.14800
   2.62094 	   -0.21463 	   -0.21462
   2.65388 	   -0.22562 	    0.84089
   2.66452 	   -0.23358 	    1.89499
   2.66454 	   -0.24155 	    2.93550
   2.66115 	   -0.24617 	    3.97888
   2.66115 	   -0.24617 	    5.02111
   2.66454 	   -0.24155 	    6.06449
   2.66452 	   -0.23358 	    7.10500
   2.65388 	   -0.22562 	    8.15910
   2.62094 	   -0.21462 	    9.21462
   2.65388 	    0.84089 	   -0.22562
   2.72602 	    0.82230 	    0.82231
   2.74901 	    0.81203 	    1.90192
   2.74900 	    0.80528 	    2.94145
   2.74389 	    0.79807 	    3.98148
   2.74389 	    0.79807 	    5.01851
   2.74900 	    0.80528 	    6.05854
   2.74901 	    0.81203 	    7.09808
   2.72602 	    0.82231 	    8.17768
   2.65388 	    0.84089 	    9.22561
   2.66452 	    1.89499 	   -0.23358
   2.74901 	    1.90191 	    0.81203
   2.76074 	    1.90030 	    1.90030
   2.75335 	    1.89762 	    2.94278
   2.74211 	    1.88945 	    3.98036
   2.74211 	    1.88945 	    5.01963
   2.75335 	    1.89762 	    6.05721
   2.76074 	    1.90030 	    7.09969
   2.74901 	    1.90192 	    8.18796
   2.66453 	    1.89499 	    9.23357
   2.66454 	    2.93550 	   -0.24155
   2.74900 	    2.94145 	    0.80528
   2.75335 	    2.94278 	    1.89762
   2.74414 	    2.94009 	    2.94009
   2.73147 	    2.93738 	    3.97895
   2.73147 	    2.93738 	    5.02104
   2.74414 	    2.94009 	    6.05990
   2.75335 	    2.94278 	    7.10237
   2.74901 	    2.94145 	    8.19471
   2.66454 	    2.93550 	    9.24154
   2.66116 	    3.97888 	   -0.24617
   2.74389 	    3.98148 	    0.79808
   2.74211 	    3.98036 	    1.88945
   2.73147 	    3.97895 	    2.93739
   2.71824 	    3.97795 	    3.97796
   2.71824 	    3.97796 	    5.02203
   2.73147 	    3.97895 	    6.06260
   2.74210 	    3.98036 	    7.11054
   2.74389 	    3.98148 	    8.20191
   2.66116 	    3.97888 	    9.24616
   2.66116 	    5.02111 	   -0.24617
   2.74389 	    5.01851 	    0.79808
   2.74211 	    5.01962 	    1.88945
   2.73147 	    5.02104 	    2.93739
   2.71823 	    5.02203 	    3.97796
   2.71823 	    5.02203 	    5.02203
   2.73147 	    5.02104 	    6.06260
   2.74210 	    5.01962 	    7.11054
   2.74389 	    5.01851 	    8.20191
   2.66116 	    5.02111 	    9.24616
   2.66454 	    6.06449 	   -0.24155
   2.74900 	    6.05854 	    0.80528
   2.75335 	    6.05721 	    1.89762
   2.74414 	    6.05989 	    2.94009
   2.73147 	    6.06260 	    3.97895
   2.73147 	    6.06260 	    5.02104
   2.74414 	    6.05989 	    6.05990
   2.75335 	    6.05721 	    7.10237
[...]
POINT_DATA 1000
SCALARS C float
LOOKUP_TABLE default
	      1.2362115
	      0.7020903
	      0.7065236
	      0.7347175
	      0.6978757
	      0.6978727
	      0.7347125
	      0.7065220
	      0.7020830
	      1.2361834
	      0.7020841
	      0.1164338
	      0.1226408
	      0.1623303
	      0.1324617
	      0.1324599
	      0.1623284
	      0.1226445
	      0.1164339
	      0.7020667
	      0.7065155
	      0.1226404
	      0.1319091
	      0.1896243
	      0.1561715
	      0.1561694
	      0.1896217
	      0.1319128
	      0.1226423
	      0.7064948
	      0.7347100
	      0.1623311
	      0.1896259
	      0.2634229
	      0.2279568
	      0.2279545
	      0.2634196
	      0.1896289
	      0.1623328
	      0.7346882
	      0.6978675
	      0.1324623
	      0.1561729
	      0.2279566
	      0.1882461
	      0.1882440
	      0.2279535
	      0.1561760
	      0.1324643
	      0.6978462
	      0.6978638
	      0.1324596
	      0.1561696
	      0.2279529
	      0.1882427
	      0.1882406
	      0.2279499
	      0.1561727
	      0.1324616
	      0.6978424
	      0.7347042
	      0.1623281
	      0.1896220
	      0.2634179
	      0.2279519
	      0.2279496
	      0.2634146
	      0.1896250
	      0.1623298
	      0.7346824
	      0.7065146
	      0.1226453
	      0.1319147
	      0.1896293
	      0.1561762
	      0.1561741
	      0.1896266
	      0.1319185
	      0.1226472
	      0.7064939
	      0.7020752
	      0.1164337
	      0.1226431
	      0.1623325
	      0.1324640
	      0.1324622
	      0.1623306
	      0.1226468
	      0.1164338
	      0.7020578
	      1.2361735
	      0.7020589
	      0.7064874
	      0.7346798
	      0.6978372
	      0.6978342
	      0.7346749
	      0.7064859
	      0.7020516
	      1.2361453
	      0.0964642
	      0.0742536
	      0.0743813
	      0.0814931
	      0.0823043
	      0.0823042
	      0.0814930
	      0.0743812
	      0.0742532
	      0.0964636
	      0.0742538
	      0.0814146
	      0.0828230
	      0.0974838
	      0.0968610
	      0.0968608
	      0.0974840
	      0.0828224
	      0.0814143
	      0.0742529
	      0.0743811
	      0.0828226
	      0.0693398
	      0.0832273
	      0.0804246
	      0.0804243
	      0.0832281
	      0.0693390
	      0.0828224
	      0.0743798
	      0.0814927
	      0.0974832
	      0.0832270
	      0.0983704
	      0.0957173
	      0.0957169
	      0.0983711
	      0.0832261
	      0.0974829
	      0.0814909
	      0.0823040
	      0.0968606
	      0.0804245
	      0.0957175
	      0.0927544
	      0.0927539
	      0.0957182
	      0.0804237
	      0.0968602
	      0.0823023
	      0.0823040
	      0.0968604
	      0.0804240
	      0.0957169
	      0.0927537
	      0.0927532
	      0.0957176
	      0.0804232
	      0.0968600
	      0.0823022
	      0.0814927
	      0.0974836
	      0.0832279
	      0.0983713
	      0.0957182
	      0.0957178
	      0.0983720
	      0.0832271
	      0.0974833
	      0.0814909
	      0.0743808
	      0.0828218
	      0.0693384
	      0.0832259
	      0.0804234
	      0.0804230
	      0.0832267
	      0.0693377
	      0.0828216
	      0.0743795
	      0.0742530
	      0.0814143
	      0.0828219
	      0.0974825
	      0.0968598
	      0.0968596
	      0.0974827
	      0.0828212
	      0.0814140
	      0.0742521
	      0.0964638
	      0.0742527
	      0.0743794
	      0.0814905
	      0.0823020
	      0.0823019
	      0.0814905
	      0.0743793
	      0.0742523
	      0.0964632
	      0.2169756
	      0.1599133
	      0.1454723
	      0.1442616
	      0.1434654
	      0.1434652
	      0.1442612
	      0.1454715
	      0.1599119
	      0.2169735
	      0.1599134
	      0.1293708
	      0.1222440
	      0.1220044
	      0.1215053
	      0.1215052
	      0.1220039
	      0.1222431
	      0.1293696
	      0.1599130
	      0.1454723
	      0.1222436
	      0.1121865
	      0.1062125
	      0.1125828
	      0.1125831
	      0.1062127
	      0.1121843
	      0.1222417
	      0.1454717
	      0.1442614
	      0.1220037
	      0.1062119
	      0.0986030
	      0.1055144
	      0.1055134
	      0.0986028
	      0.1062105
	      0.1220016
	      0.1442606
	      0.1434652
	      0.1215046
	      0.1125823
	      0.1055143
	      0.1146814
	      0.1146811
	      0.1055144
	      0.1125805
	      0.1215023
	      0.1434643
	      0.1434649
	      0.1215044
	      0.1125826
	      0.1055132
	      0.1146806
	      0.1146803
	      0.1055134
	      0.1125808
	      0.1215021
	      0.1434641
	      0.1442608
	      0.1220032
	      0.1062120
	      0.0986029
	      0.1055143
	      0.1055132
	      0.0986026
	      0.1062106
	      0.1220010
	      0.1442600
	      0.1454709
	      0.1222423
	      0.1121832
	      0.1062098
	      0.1125800
	      0.1125802
	      0.1062101
	      0.1121810
	      0.1222404
	      0.1454704
	      0.1599114
	      0.1293694
	      0.1222408
	      0.1220008
	      0.1215015
	      0.1215013
	      0.1220003
	      0.1222400
	      0.1293682
	      0.1599110
	      0.2169732
	      0.1599125
	      0.1454712
	      0.1442602
	      0.1434640
	      0.1434638
	      0.1442598
	      0.1454704
	      0.1599110
	      0.2169711
	      0.2047467
	      0.1628358
	      0.1548899
	      0.1542711
	      0.1543625
	      0.1543623
	      0.1542706
	      0.1548891
	      0.1628346
	      0.2047453
	      0.1628362
	      0.1331301
	      0.1289375
	      0.1262590
	      0.1254338
	      0.1254335
	      0.1262584
	      0.1289368
	      0.1331304
	      0.1628358
	      0.1548902
	      0.1289378
	      0.1622032
	      0.1578443
	      0.1720139
	      0.1720133
	      0.1578446
	      0.1622025
	      0.1289388
	      0.1548893
	      0.1542713
	      0.1262592
	      0.1578437
	      0.1402877
	      0.1541400
	      0.1541387
	      0.1402876
	      0.1578431
	      0.1262598
	      0.1542701
	      0.1543625
	      0.1254339
	      0.1720132
	      0.1541400
	      0.1714581
	      0.1714572
	      0.1541402
	      0.1720125
	      0.1254342
	      0.1543612
	      0.1543622
	      0.1254335
	      0.1720128
	      0.1541385
	      0.1714566
	      0.1714557
	      0.1541386
	      0.1720121
	      0.1254337
	      0.1543609
	      0.1542704
	      0.1262582
	      0.1578439
	      0.1402876
	      0.1541400
	      0.1541387
	      0.1402875
	      0.1578432
	      0.1262588
	      0.1542692
	      0.1548886
	      0.1289367
	      0.1622017
	      0.1578424
	      0.1720120
	      0.1720114
	      0.1578426
	      0.1622010
	      0.1289376
	      0.1548877
	      0.1628340
	      0.1331308
	      0.1289386
	      0.1262596
	      0.1254341
	      0.1254338
	      0.1262590
	      0.1289379
	      0.1331311
	      0.1628336
	      0.2047451
	      0.1628352
	      0.1548888
	      0.1542698
	      0.1543611
	      0.1543609
	      0.1542694
	      0.1548880
	      0.1628340
	      0.2047437
	      0.1639249
	      0.1406343
	      0.1389928
	      0.1415272
	      0.1422727
	      0.1422726
	      0.1415268
	      0.1389923
	      0.1406337
	      0.1639247
	      0.1406349
	      0.1135586
	      0.1142999
	      0.1145277
	      0.1137458
	      0.1137456
	      0.1145273
	      0.1142994
	      0.1135595
	      0.1406357
	      0.1389936
	      0.1143004
	      0.1397734
	      0.1374064
	      0.1502230
	      0.1502241
	      0.1374068
	      0.1397703
	      0.1143020
	      0.1389938
	      0.1415278
	      0.1145285
	      0.1374052
	      0.1191070
	      0.1316155
	      0.1316168
	      0.1191070
	      0.1374012
	      0.1145296
	      0.1415278
	      0.1422732
	      0.1137462
	      0.1502218
	      0.1316157
	      0.1478793
	      0.1478803
	      0.1316156
	      0.1502187
	      0.1137477
	      0.1422731
	      0.1422729
	      0.1137460
	      0.1502231
	      0.1316169
	      0.1478807
	      0.1478816
	      0.1316169
	      0.1502201
	      0.1137475
	      0.1422728
	      0.1415270
	      0.1145277
	      0.1374058
	      0.1191068
	      0.1316157
	      0.1316170
	      0.1191067
	      0.1374018
	      0.1145288
	      0.1415269
	      0.1389923
	      0.1142995
	      0.1397688
	      0.1374003
	      0.1502177
	      0.1502188
	      0.1374007
	      0.1397657
	      0.1143011
	      0.1389925
	      0.1406335
	      0.1135601
	      0.1143022
	      0.1145300
	      0.1137481
	      0.1137479
	      0.1145296
	      0.1143017
	      0.1135610
	      0.1406343
	      0.1639254
	      0.1406356
	      0.1389937
	      0.1415280
	      0.1422735
	      0.1422733
	      0.1415276
	      0.1389932
	      0.1406350
	      0.1639252
	      0.1639614
	      0.1406368
	      0.1389620
	      0.1415079
	      0.1422943
	      0.1422941
	      0.1415075
	      0.1389616
	      0.1406363
	      0.1639613
	      0.1406375
	      0.1135108
	      0.1138689
	      0.1140544
	      0.1134220
	      0.1134218
	      0.1140539
	      0.1138684
	      0.1135114
	      0.1406384
	      0.1389628
	      0.1138695
	      0.1399315
	      0.1384547
	      0.1500167
	      0.1500170
	      0.1384552
	      0.1399303
	      0.1138706
	      0.1389630
	      0.1415086
	      0.1140551
	      0.1384539
	      0.1213874
	      0.1327240
	      0.1327244
	      0.1213874
	      0.1384523
	      0.1140556
	      0.1415085
	      0.1422948
	      0.1134224
	      0.1500157
	      0.1327241
	      0.1482505
	      0.1482508
	      0.1327241
	      0.1500149
	      0.1134232
	      0.1422946
	      0.1422945
	      0.1134220
	      0.1500163
	      0.1327244
	      0.1482507
	      0.1482510
	      0.1327244
	      0.1500155
	      0.1134228
	      0.1422943
	      0.1415077
	      0.1140542
	      0.1384547
	      0.1213872
	      0.1327241
	      0.1327245
	      0.1213872
	      0.1384532
	      0.1140548
	      0.1415076
	      0.1389615
	      0.1138684
	      0.1399293
	      0.1384518
	      0.1500142
	      0.1500145
	      0.1384523
	      0.1399281
	      0.1138695
	      0.1389617
	      0.1406362
	      0.1135117
	      0.1138706
	      0.1140559
	      0.1134235
	      0.1134232
	      0.1140555
	      0.1138700
	      0.1135123
	      0.1406371
	      0.1639620
	      0.1406383
	      0.1389629
	      0.1415086
	      0.1422950
	      0.1422948
	      0.1415082
	      0.1389625
	      0.1406378
	      0.1639619
	      0.2048967
	      0.1629284
	      0.1549758
	      0.1543688
	      0.1544818
	      0.1544816
	      0.1543683
	      0.1549750
	      0.1629275
	      0.2048954
	      0.1629288
	      0.1331934
	      0.1289203
	      0.1263021
	      0.1256260
	      0.1256257
	      0.1263015
	      0.1289194
	      0.1331933
	      0.1629286
	      0.1549761
	      0.1289205
	      0.1615198
	      0.1578758
	      0.1712324
	      0.1712317
	      0.1578755
	      0.1615195
	      0.1289207
	      0.1549751
	      0.1543690
	      0.1263023
	      0.1578751
	      0.1413631
	      0.1543749
	      0.1543734
	      0.1413622
	      0.1578748
	      0.1263020
	      0.1543676
	      0.1544818
	      0.1256259
	      0.1712319
	      0.1543749
	      0.1710896
	      0.1710886
	      0.1543742
	      0.1712317
	      0.1256251
	      0.1544803
	      0.1544815
	      0.1256255
	      0.1712315
	      0.1543732
	      0.1710878
	      0.1710868
	      0.1543726
	      0.1712313
	      0.1256247
	      0.1544799
	      0.1543680
	      0.1263012
	      0.1578749
	      0.1413619
	      0.1543740
	      0.1543726
	      0.1413610
	      0.1578747
	      0.1263009
	      0.1543666
	      0.1549745
	      0.1289191
	      0.1615187
	      0.1578743
	      0.1712314
	      0.1712307
	      0.1578740
	      0.1615184
	      0.1289192
	      0.1549735
	      0.1629269
	      0.1331934
	      0.1289204
	      0.1263018
	      0.1256249
	      0.1256246
	      0.1263012
	      0.1289195
	      0.1331933
	      0.1629266
	      0.2048953
	      0.1629280
	      0.1549746
	      0.1543673
	      0.1544801
	      0.1544799
	      0.1543668
	      0.1549738
	      0.1629270
	      0.2048940
	      0.2173511
	      0.1601786
	      0.1457963
	      0.1446000
	      0.1437504
	      0.1437502
	      0.1445995
	      0.1457955
	      0.1601773
	      0.2173486
	      0.1601787
	      0.1295110
	      0.1227106
	      0.1226464
	      0.1220622
	      0.1220621
	      0.1226458
	      0.1227099
	      0.1295105
	      0.1601772
	      0.1457962
	      0.1227105
	      0.1112311
	      0.1051585
	      0.1116266
	      0.1116276
	      0.1051586
	      0.1112296
	      0.1227107
	      0.1457943
	      0.1445997
	      0.1226460
	      0.1051580
	      0.0978929
	      0.1048490
	      0.1048491
	      0.0978923
	      0.1051565
	      0.1226463
	      0.1445975
	      0.1437499
	      0.1220619
	      0.1116260
	      0.1048487
	      0.1138293
	      0.1138300
	      0.1048486
	      0.1116244
	      0.1220619
	      0.1437477
	      0.1437497
	      0.1220617
	      0.1116274
	      0.1048490
	      0.1138298
	      0.1138306
	      0.1048489
	      0.1116257
	      0.1220618
	      0.1437474
	      0.1445988
	      0.1226453
	      0.1051578
	      0.0978921
	      0.1048486
	      0.1048487
	      0.0978915
	      0.1051563
	      0.1226457
	      0.1445967
	      0.1457948
	      0.1227096
	      0.1112288
	      0.1051557
	      0.1116241
	      0.1116251
	      0.1051558
	      0.1112272
	      0.1227097
	      0.1457929
	      0.1601764
	      0.1295107
	      0.1227103
	      0.1226459
	      0.1220615
	      0.1220614
	      0.1226453
	      0.1227097
	      0.1295102
	      0.1601749
	      0.2173479
	      0.1601764
	      0.1457935
	      0.1445969
	      0.1437472
	      0.1437470
	      0.1445964
	      0.1457928
	      0.1601751
	      0.2173454
	      0.0969506
	      0.0745444
	      0.0746753
	      0.0817920
	      0.0825520
	      0.0825520
	      0.0817918
	      0.0746752
	      0.0745443
	      0.0969499
	      0.0745445
	      0.0812195
	      0.0825911
	      0.0973030
	      0.0966059
	      0.0966056
	      0.0973025
	      0.0825908
	      0.0812189
	      0.0745443
	      0.0746752
	      0.0825907
	      0.0694078
	      0.0836060
	      0.0808151
	      0.0808146
	      0.0836054
	      0.0694076
	      0.0825898
	      0.0746747
	      0.0817918
	      0.0973024
	      0.0836060
	      0.0993320
	      0.0967793
	      0.0967786
	      0.0993313
	      0.0836059
	      0.0973012
	      0.0817908
	      0.0825519
	      0.0966053
	      0.0808151
	      0.0967793
	      0.0939581
	      0.0939576
	      0.0967787
	      0.0808151
	      0.0966042
	      0.0825508
	      0.0825518
	      0.0966050
	      0.0808144
	      0.0967784
	      0.0939573
	      0.0939567
	      0.0967778
	      0.0808144
	      0.0966038
	      0.0825507
	      0.0817916
	      0.0973018
	      0.0836051
	      0.0993310
	      0.0967784
	      0.0967778
	      0.0993304
	      0.0836050
	      0.0973006
	      0.0817905
	      0.0746750
	      0.0825902
	      0.0694073
	      0.0836057
	      0.0808149
	      0.0808144
	      0.0836051
	      0.0694071
	      0.0825893
	      0.0746744
	      0.0745442
	      0.0812188
	      0.0825891
	      0.0973005
	      0.0966036
	      0.0966033
	      0.0973001
	      0.0825888
	      0.0812181
	      0.0745440
	      0.0969503
	      0.0745443
	      0.0746745
	      0.0817905
	      0.0825506
	      0.0825505
	      0.0817903
	      0.0746744
	      0.0745441
	      0.0969497
	      1.2364265
	      0.7018357
	      0.7060084
	      0.7344794
	      0.6972375
	      0.6972354
	      0.7344751
	      0.7060049
	      0.7018278
	      1.2363990
	      0.7018299
	      0.1171391
	      0.1228610
	      0.1625954
	      0.1325286
	      0.1325279
	      0.1625948
	      0.1228631
	      0.1171398
	      0.7018130
	      0.7060006
	      0.1228603
	      0.1318035
	      0.1899131
	      0.1561586
	      0.1561577
	      0.1899120
	      0.1318055
	      0.1228613
	      0.7059809
	      0.7344720
	      0.1625956
	      0.1899142
	      0.2643122
	      0.2282555
	      0.2282544
	      0.2643105
	      0.1899158
	      0.1625963
	      0.7344511
	      0.6972295
	      0.1325289
	      0.1561596
	      0.2282554
	      0.1875190
	      0.1875180
	      0.2282539
	      0.1561615
	      0.1325299
	      0.6972093
	      0.6972268
	      0.1325277
	      0.1561579
	      0.2282534
	      0.1875172
	      0.1875162
	      0.2282519
	      0.1561599
	      0.1325288
	      0.6972066
	      0.7344669
	      0.1625945
	      0.1899123
	      0.2643095
	      0.2282528
	      0.2282517
	      0.2643078
	      0.1899139
	      0.1625952
	      0.7344460
	      0.7059974
	      0.1228634
	      0.1318067
	      0.1899161
	      0.1561618
	      0.1561608
	      0.1899149
	      0.1318088
	      0.1228644
	      0.7059777
	      0.7018202
	      0.1171399
	      0.1228616
	      0.1625960
	      0.1325297
	      0.1325291
	      0.1625954
	      0.1228637
	      0.1171406
	      0.7018033
	      1.2363883
	      0.7018053
	      0.7059734
	      0.7344429
	      0.6972007
	      0.6971986
	      0.7344386
	      0.7059699
	      0.7017975
	      1.2363608
